Program Version,EnergyPlus, Version 8.8.0-Unknown, YMD=2019.07.12 13:07
1,5,Environment Title[],Latitude[deg],Longitude[deg],Time Zone[],Elevation[m]
2,6,Day of Simulation[],Month[],Day of Month[],DST Indicator[1=yes 0=no],Hour[],StartMinute[],EndMinute[],DayType
3,3,Cumulative Day of Simulation[],Month[],Day of Month[],DST Indicator[1=yes 0=no],DayType  ! When Daily Report Variables Requested
4,2,Cumulative Days of Simulation[],Month[]  ! When Monthly Report Variables Requested
5,1,Cumulative Days of Simulation[] ! When Run Period Report Variables Requested
6,1,Environment,Site Outdoor Air Drybulb Temperature [C] !TimeStep
133,1,WESTDATACENTER_EQUIP,ITE CPU Electric Power [W] !Hourly
134,1,WESTDATACENTER_EQUIP,ITE Fan Electric Power [W] !Hourly
135,1,WESTDATACENTER_EQUIP,ITE UPS Electric Power [W] !Hourly
136,1,WESTDATACENTER_EQUIP,ITE CPU Electric Power at Design Inlet Conditions [W] !Hourly
137,1,WESTDATACENTER_EQUIP,ITE Fan Electric Power at Design Inlet Conditions [W] !Hourly
138,1,WESTDATACENTER_EQUIP,ITE UPS Heat Gain to Zone Rate [W] !Hourly
139,1,WESTDATACENTER_EQUIP,ITE Total Heat Gain to Zone Rate [W] !Hourly
173,1,WESTDATACENTER_EQUIP,ITE Standard Density Air Volume Flow Rate [m3/s] !Hourly
174,1,WESTDATACENTER_EQUIP,ITE Air Inlet Dry-Bulb Temperature [C] !Hourly
175,1,WESTDATACENTER_EQUIP,ITE Air Inlet Dewpoint Temperature [C] !Hourly
176,1,WESTDATACENTER_EQUIP,ITE Air Inlet Relative Humidity [%] !Hourly
177,1,WESTDATACENTER_EQUIP,ITE Air Outlet Dry-Bulb Temperature [C] !Hourly
178,1,WESTDATACENTER_EQUIP,ITE Supply Heat Index [] !Hourly
179,1,WESTDATACENTER_EQUIP,ITE Air Inlet Operating Range Exceeded Time [hr] !Hourly
180,1,WESTDATACENTER_EQUIP,ITE Air Inlet Dry-Bulb Temperature Above Operating Range Time [hr] !Hourly
181,1,WESTDATACENTER_EQUIP,ITE Air Inlet Dry-Bulb Temperature Below Operating Range Time [hr] !Hourly
182,1,WESTDATACENTER_EQUIP,ITE Air Inlet Dewpoint Temperature Above Operating Range Time [hr] !Hourly
183,1,WESTDATACENTER_EQUIP,ITE Air Inlet Dewpoint Temperature Below Operating Range Time [hr] !Hourly
184,1,WESTDATACENTER_EQUIP,ITE Air Inlet Relative Humidity Above Operating Range Time [hr] !Hourly
185,1,WESTDATACENTER_EQUIP,ITE Air Inlet Relative Humidity Below Operating Range Time [hr] !Hourly
186,1,WESTDATACENTER_EQUIP,ITE Air Inlet Dry-Bulb Temperature Difference Above Operating Range [deltaC] !Hourly
187,1,WESTDATACENTER_EQUIP,ITE Air Inlet Dry-Bulb Temperature Difference Below Operating Range [deltaC] !Hourly
188,1,WESTDATACENTER_EQUIP,ITE Air Inlet Dewpoint Temperature Difference Above Operating Range [deltaC] !Hourly
189,1,WESTDATACENTER_EQUIP,ITE Air Inlet Dewpoint Temperature Difference Below Operating Range [deltaC] !Hourly
190,1,WESTDATACENTER_EQUIP,ITE Air Inlet Relative Humidity Difference Above Operating Range [%] !Hourly
191,1,WESTDATACENTER_EQUIP,ITE Air Inlet Relative Humidity Difference Below Operating Range [%] !Hourly
192,1,WEST ZONE,Zone ITE CPU Electric Power [W] !Hourly
193,1,WEST ZONE,Zone ITE Fan Electric Power [W] !Hourly
194,1,WEST ZONE,Zone ITE UPS Electric Power [W] !Hourly
195,1,WEST ZONE,Zone ITE CPU Electric Power at Design Inlet Conditions [W] !Hourly
196,1,WEST ZONE,Zone ITE Fan Electric Power at Design Inlet Conditions [W] !Hourly
197,1,WEST ZONE,Zone ITE UPS Heat Gain to Zone Rate [W] !Hourly
198,1,WEST ZONE,Zone ITE Total Heat Gain to Zone Rate [W] !Hourly
199,1,EASTDATACENTER_EQUIP,ITE CPU Electric Power [W] !Hourly
200,1,EASTDATACENTER_EQUIP,ITE Fan Electric Power [W] !Hourly
201,1,EASTDATACENTER_EQUIP,ITE UPS Electric Power [W] !Hourly
202,1,EASTDATACENTER_EQUIP,ITE CPU Electric Power at Design Inlet Conditions [W] !Hourly
203,1,EASTDATACENTER_EQUIP,ITE Fan Electric Power at Design Inlet Conditions [W] !Hourly
204,1,EASTDATACENTER_EQUIP,ITE UPS Heat Gain to Zone Rate [W] !Hourly
205,1,EASTDATACENTER_EQUIP,ITE Total Heat Gain to Zone Rate [W] !Hourly
209,1,EASTDATACENTER_EQUIP,ITE Standard Density Air Volume Flow Rate [m3/s] !Hourly
210,1,EASTDATACENTER_EQUIP,ITE Air Inlet Dry-Bulb Temperature [C] !Hourly
211,1,EASTDATACENTER_EQUIP,ITE Air Inlet Dewpoint Temperature [C] !Hourly
212,1,EASTDATACENTER_EQUIP,ITE Air Inlet Relative Humidity [%] !Hourly
213,1,EASTDATACENTER_EQUIP,ITE Air Outlet Dry-Bulb Temperature [C] !Hourly
214,1,EASTDATACENTER_EQUIP,ITE Supply Heat Index [] !Hourly
215,1,EASTDATACENTER_EQUIP,ITE Air Inlet Operating Range Exceeded Time [hr] !Hourly
216,1,EASTDATACENTER_EQUIP,ITE Air Inlet Dry-Bulb Temperature Above Operating Range Time [hr] !Hourly
217,1,EASTDATACENTER_EQUIP,ITE Air Inlet Dry-Bulb Temperature Below Operating Range Time [hr] !Hourly
218,1,EASTDATACENTER_EQUIP,ITE Air Inlet Dewpoint Temperature Above Operating Range Time [hr] !Hourly
219,1,EASTDATACENTER_EQUIP,ITE Air Inlet Dewpoint Temperature Below Operating Range Time [hr] !Hourly
220,1,EASTDATACENTER_EQUIP,ITE Air Inlet Relative Humidity Above Operating Range Time [hr] !Hourly
221,1,EASTDATACENTER_EQUIP,ITE Air Inlet Relative Humidity Below Operating Range Time [hr] !Hourly
222,1,EASTDATACENTER_EQUIP,ITE Air Inlet Dry-Bulb Temperature Difference Above Operating Range [deltaC] !Hourly
223,1,EASTDATACENTER_EQUIP,ITE Air Inlet Dry-Bulb Temperature Difference Below Operating Range [deltaC] !Hourly
224,1,EASTDATACENTER_EQUIP,ITE Air Inlet Dewpoint Temperature Difference Above Operating Range [deltaC] !Hourly
225,1,EASTDATACENTER_EQUIP,ITE Air Inlet Dewpoint Temperature Difference Below Operating Range [deltaC] !Hourly
226,1,EASTDATACENTER_EQUIP,ITE Air Inlet Relative Humidity Difference Above Operating Range [%] !Hourly
227,1,EASTDATACENTER_EQUIP,ITE Air Inlet Relative Humidity Difference Below Operating Range [%] !Hourly
228,1,EAST ZONE,Zone ITE CPU Electric Power [W] !Hourly
229,1,EAST ZONE,Zone ITE Fan Electric Power [W] !Hourly
230,1,EAST ZONE,Zone ITE UPS Electric Power [W] !Hourly
231,1,EAST ZONE,Zone ITE CPU Electric Power at Design Inlet Conditions [W] !Hourly
232,1,EAST ZONE,Zone ITE Fan Electric Power at Design Inlet Conditions [W] !Hourly
233,1,EAST ZONE,Zone ITE UPS Heat Gain to Zone Rate [W] !Hourly
234,1,EAST ZONE,Zone ITE Total Heat Gain to Zone Rate [W] !Hourly
239,1,EMS,Power Utilization Effectiveness [] !TimeStep
312,1,WEST ZONE,Zone Air Temperature [C] !TimeStep
313,1,WEST ZONE,Zone Air Relative Humidity [%] !TimeStep
314,1,WEST ZONE,Zone Thermostat Control Type [] !Hourly
315,1,WEST ZONE,Zone Thermostat Heating Setpoint Temperature [C] !Hourly
316,1,WEST ZONE,Zone Thermostat Cooling Setpoint Temperature [C] !Hourly
349,1,EAST ZONE,Zone Air Temperature [C] !TimeStep
350,1,EAST ZONE,Zone Air Relative Humidity [%] !TimeStep
351,1,EAST ZONE,Zone Thermostat Control Type [] !Hourly
352,1,EAST ZONE,Zone Thermostat Heating Setpoint Temperature [C] !Hourly
353,1,EAST ZONE,Zone Thermostat Cooling Setpoint Temperature [C] !Hourly
386,1,WEST PLENUM,Zone Thermostat Control Type [] !Hourly
387,1,WEST PLENUM,Zone Thermostat Heating Setpoint Temperature [C] !Hourly
388,1,WEST PLENUM,Zone Thermostat Cooling Setpoint Temperature [C] !Hourly
421,1,EAST PLENUM,Zone Thermostat Control Type [] !Hourly
422,1,EAST PLENUM,Zone Thermostat Heating Setpoint Temperature [C] !Hourly
423,1,EAST PLENUM,Zone Thermostat Cooling Setpoint Temperature [C] !Hourly
517,1,Whole Building,Facility Total Building Electric Demand Power [W] !Hourly
518,1,Whole Building,Facility Total HVAC Electric Demand Power [W] !Hourly
519,1,Whole Building,Facility Total Electric Demand Power [W] !Hourly
520,1,WEST ZONE,Zone Oscillating Temperatures Time [hr] !Hourly
521,1,EAST ZONE,Zone Oscillating Temperatures Time [hr] !Hourly
522,1,WEST PLENUM,Zone Oscillating Temperatures Time [hr] !Hourly
523,1,EAST PLENUM,Zone Oscillating Temperatures Time [hr] !Hourly
524,1,Facility,Facility Any Zone Oscillating Temperatures Time [hr] !Hourly
525,1,WEST ZONE,Zone Heating Setpoint Not Met Time [hr] !Hourly
526,1,WEST ZONE,Zone Heating Setpoint Not Met While Occupied Time [hr] !Hourly
527,1,WEST ZONE,Zone Cooling Setpoint Not Met Time [hr] !Hourly
528,1,WEST ZONE,Zone Cooling Setpoint Not Met While Occupied Time [hr] !Hourly
529,1,EAST ZONE,Zone Heating Setpoint Not Met Time [hr] !Hourly
530,1,EAST ZONE,Zone Heating Setpoint Not Met While Occupied Time [hr] !Hourly
531,1,EAST ZONE,Zone Cooling Setpoint Not Met Time [hr] !Hourly
532,1,EAST ZONE,Zone Cooling Setpoint Not Met While Occupied Time [hr] !Hourly
533,1,WEST PLENUM,Zone Heating Setpoint Not Met Time [hr] !Hourly
534,1,WEST PLENUM,Zone Heating Setpoint Not Met While Occupied Time [hr] !Hourly
535,1,WEST PLENUM,Zone Cooling Setpoint Not Met Time [hr] !Hourly
536,1,WEST PLENUM,Zone Cooling Setpoint Not Met While Occupied Time [hr] !Hourly
537,1,EAST PLENUM,Zone Heating Setpoint Not Met Time [hr] !Hourly
538,1,EAST PLENUM,Zone Heating Setpoint Not Met While Occupied Time [hr] !Hourly
539,1,EAST PLENUM,Zone Cooling Setpoint Not Met Time [hr] !Hourly
540,1,EAST PLENUM,Zone Cooling Setpoint Not Met While Occupied Time [hr] !Hourly
541,1,WEST ZONE VAV SYSTEM,Zone Air Terminal VAV Damper Position [] !Hourly
542,1,WEST ZONE VAV SYSTEM,Zone Air Terminal Minimum Air Flow Fraction [] !Hourly
543,1,WEST ZONE VAV SYSTEM,Zone Air Terminal Outdoor Air Volume Flow Rate [m3/s] !Hourly
544,1,EAST ZONE VAV SYSTEM,Zone Air Terminal VAV Damper Position [] !Hourly
545,1,EAST ZONE VAV SYSTEM,Zone Air Terminal Minimum Air Flow Fraction [] !Hourly
546,1,EAST ZONE VAV SYSTEM,Zone Air Terminal Outdoor Air Volume Flow Rate [m3/s] !Hourly
599,1,WEST ZONE CW COOLING COIL,Cooling Coil Total Cooling Rate [W] !TimeStep
600,1,WEST ZONE CW COOLING COIL,Cooling Coil Sensible Cooling Rate [W] !TimeStep
603,1,EAST ZONE CW COOLING COIL,Cooling Coil Total Cooling Rate [W] !TimeStep
604,1,EAST ZONE CW COOLING COIL,Cooling Coil Sensible Cooling Rate [W] !TimeStep
605,1,WEST ZONE SUPPLY FAN,Fan Electric Power [W] !Hourly
606,1,WEST ZONE SUPPLY FAN,Fan Rise in Air Temperature [deltaC] !Hourly
607,1,WEST ZONE SUPPLY FAN,Fan Heat Gain to Air [W] !Hourly
608,1,WEST ZONE SUPPLY FAN,Fan Electric Energy [J] !Hourly
639,1,WEST ZONE SUPPLY FAN,Fan Air Mass Flow Rate [kg/s] !Hourly
640,1,EAST ZONE SUPPLY FAN,Fan Electric Power [W] !Hourly
641,1,EAST ZONE SUPPLY FAN,Fan Rise in Air Temperature [deltaC] !Hourly
642,1,EAST ZONE SUPPLY FAN,Fan Heat Gain to Air [W] !Hourly
643,1,EAST ZONE SUPPLY FAN,Fan Electric Energy [J] !Hourly
644,1,EAST ZONE SUPPLY FAN,Fan Air Mass Flow Rate [kg/s] !Hourly
645,1,WEST DATA CENTER IEC,Evaporative Cooler Total Stage Effectiveness [] !TimeStep
646,1,WEST DATA CENTER IEC,Evaporative Cooler Operating Mode Status [] !TimeStep
647,1,EAST DATA CENTER IEC,Evaporative Cooler Total Stage Effectiveness [] !TimeStep
648,1,EAST DATA CENTER IEC,Evaporative Cooler Operating Mode Status [] !TimeStep
649,1,WEST DATA CENTER DEC,Evaporative Cooler Stage Effectiveness [] !TimeStep
650,1,EAST DATA CENTER DEC,Evaporative Cooler Stage Effectiveness [] !TimeStep
662,1,WEST DATA CENTER IEC,Evaporative Cooler Electric Power [W] !TimeStep
663,1,WEST DATA CENTER IEC,Evaporative Cooler Water Volume [m3] !TimeStep
726,1,EAST DATA CENTER IEC,Evaporative Cooler Electric Power [W] !TimeStep
727,1,EAST DATA CENTER IEC,Evaporative Cooler Water Volume [m3] !TimeStep
730,1,WEST DATA CENTER DEC,Evaporative Cooler Electric Power [W] !TimeStep
731,1,WEST DATA CENTER DEC,Evaporative Cooler Water Volume [m3] !TimeStep
734,1,EAST DATA CENTER DEC,Evaporative Cooler Electric Power [W] !TimeStep
735,1,EAST DATA CENTER DEC,Evaporative Cooler Water Volume [m3] !TimeStep
737,1,WEST DX COOLING COIL,Cooling Coil Total Cooling Rate [W] !TimeStep
739,1,WEST DX COOLING COIL,Cooling Coil Sensible Cooling Rate [W] !TimeStep
741,1,EAST DX COOLING COIL,Cooling Coil Total Cooling Rate [W] !TimeStep
743,1,EAST DX COOLING COIL,Cooling Coil Sensible Cooling Rate [W] !TimeStep
766,1,CHILLER,Chiller Evaporator Cooling Rate [W] !Hourly
788,1,CHILLER,Chiller Evaporator Inlet Temperature [C] !Hourly
789,1,CHILLER,Chiller Evaporator Outlet Temperature [C] !Hourly
790,1,CHILLER,Chiller Condenser Heat Transfer Rate [W] !Hourly
802,1,CHILLER,Chiller Condenser Inlet Temperature [C] !Hourly
803,1,CHILLER,Chiller Condenser Outlet Temperature [C] !Hourly
892,1,WEST ZONE INLET NODE,System Node Temperature [C] !TimeStep
893,1,WEST ZONE INLET NODE,System Node Mass Flow Rate [kg/s] !TimeStep
894,1,WEST OUTSIDE AIR INLET NODE,System Node Temperature [C] !TimeStep
895,1,WEST OUTSIDE AIR INLET NODE,System Node Mass Flow Rate [kg/s] !TimeStep
896,1,WEST IEC SECONDARY AIR INLET NODE,System Node Temperature [C] !TimeStep
897,1,WEST IEC SECONDARY AIR INLET NODE,System Node Mass Flow Rate [kg/s] !TimeStep
898,1,WEST ZONE DEC OUTLET NODE,System Node Temperature [C] !TimeStep
899,1,WEST ZONE DEC OUTLET NODE,System Node Setpoint Temperature [C] !TimeStep
900,1,WEST ZONE IEC OUTLET NODE,System Node Temperature [C] !TimeStep
901,1,WEST ZONE IEC OUTLET NODE,System Node Setpoint Temperature [C] !TimeStep
902,1,WEST ZONE CCOIL AIR OUTLET NODE,System Node Temperature [C] !TimeStep
903,1,WEST ZONE CCOIL AIR OUTLET NODE,System Node Setpoint Temperature [C] !TimeStep
904,1,WEST AIR LOOP OUTLET NODE,System Node Temperature [C] !TimeStep
905,1,WEST AIR LOOP OUTLET NODE,System Node Setpoint Temperature [C] !TimeStep
906,1,EAST ZONE INLET NODE,System Node Temperature [C] !TimeStep
907,1,EAST ZONE INLET NODE,System Node Mass Flow Rate [kg/s] !TimeStep
908,1,EAST OUTSIDE AIR INLET NODE,System Node Temperature [C] !TimeStep
909,1,EAST OUTSIDE AIR INLET NODE,System Node Mass Flow Rate [kg/s] !TimeStep
910,1,EAST IEC SECONDARY AIR INLET NODE,System Node Temperature [C] !TimeStep
911,1,EAST IEC SECONDARY AIR INLET NODE,System Node Mass Flow Rate [kg/s] !TimeStep
912,1,EAST ZONE DEC OUTLET NODE,System Node Temperature [C] !TimeStep
913,1,EAST ZONE DEC OUTLET NODE,System Node Setpoint Temperature [C] !TimeStep
914,1,EAST ZONE IEC OUTLET NODE,System Node Temperature [C] !TimeStep
915,1,EAST ZONE IEC OUTLET NODE,System Node Setpoint Temperature [C] !TimeStep
916,1,EAST ZONE CCOIL AIR OUTLET NODE,System Node Temperature [C] !TimeStep
917,1,EAST ZONE CCOIL AIR OUTLET NODE,System Node Setpoint Temperature [C] !TimeStep
918,1,EAST AIR LOOP OUTLET NODE,System Node Temperature [C] !TimeStep
919,1,EAST AIR LOOP OUTLET NODE,System Node Setpoint Temperature [C] !TimeStep
920,1,WEST ZONE RETURN AIR NODE,System Node Temperature [C] !TimeStep
921,1,WEST ZONE RETURN AIR NODE,System Node Mass Flow Rate [kg/s] !TimeStep
922,1,WEST ZONE MIXED AIR NODE,System Node Temperature [C] !TimeStep
923,1,WEST ZONE MIXED AIR NODE,System Node Mass Flow Rate [kg/s] !TimeStep
924,1,WEST ZONE SUPPLY FAN OUTLET NODE,System Node Temperature [C] !TimeStep
925,1,EAST ZONE SUPPLY FAN OUTLET NODE,System Node Temperature [C] !TimeStep
926,1,WEST IEC SECONDARY AIR OUTLET NODE,System Node Temperature [C] !TimeStep
927,1,WEST IEC SECONDARY AIR OUTLET NODE,System Node Mass Flow Rate [kg/s] !TimeStep
End of Data Dictionary
1,WHOLEYEARDAY,  37.62,-122.40,  -8.00,   2.00
2,1, 1, 1, 0, 1, 0.00,15.00,Tuesday
6,6.825
239,1.0300298866314462
312,20.584141560735046
313,34.64836510240756
349,23.888719293899614
350,27.249670775568644
599,0.0
600,0.0
603,0.0
604,0.0
645,0.1284504312990067
647,0.0
649,0.09333333333333333
650,0.6999999999999997
662,15.959711464192364
663,0.0
726,0.0
727,0.0
730,4.0
731,0.002040885165879453
734,0.0
735,0.0
737,0.0
739,0.0
741,0.0
743,0.0
892,12.7265874424859
893,3.052800733333333
894,6.825
895,1.7155500631051209
896,6.825
897,0.5311934182802488
898,11.915779067737514
899,13.013326399999997
900,10.976642263401124
901,13.013326399999997
902,10.976642263401124
903,13.013326399999997
904,10.976642263401124
905,13.013326399999997
906,22.018082465913328
907,6.631144582980723
908,6.825
909,0.0
910,6.825
911,0.0
912,23.97397482456775
913,35.67180153333334
914,23.97397482456775
915,35.67180153333334
916,23.97397482456775
917,35.67180153333334
918,23.97397482456775
919,35.67180153333334
920,20.817251542174455
921,3.052800733333333
922,12.30765266240959
923,3.052800733333333
924,12.667622625611779
925,23.97397482456775
926,8.847369718838799
927,0.5311934182802488
646,0.3333333333333333
648,0.0
2,1, 1, 1, 0, 1,15.00,30.00,Tuesday
6,6.95
239,1.071787042677827
312,20.231923297500449
313,39.19745672577174
349,33.99097857509551
350,16.760001326562756
599,0.0
600,0.0
603,0.0
604,0.0
645,0.11921801335114174
647,0.0
649,0.27999999999999999
650,0.6999999999999997
662,4.420964271764488
663,0.0
726,0.0
727,0.0
730,7.790736295388568
731,0.0016083016561407949
734,3.642707036208267
735,0.004596738332178827
737,0.0
739,0.0
741,0.0
743,0.0
892,13.853361533284464
893,2.0810989333333338
894,6.9499999999999979
895,0.970373146374119
896,6.9499999999999979
897,0.3318789002328266
898,12.764597055324485
899,16.7626398
900,11.96906114763374
901,16.7626398
902,11.96906114763374
903,16.7626398
904,11.96906114763374
905,16.7626398
906,28.06242398264053
907,6.398496347316811
908,6.9499999999999979
909,0.46886532384712206
910,6.9499999999999979
911,0.0
912,29.790211677309999
913,35.537032333333339
914,29.790211677309999
915,35.537032333333339
916,29.790211677309999
917,35.537032333333339
918,29.790211677309999
919,35.537032333333339
920,20.1924617933351
921,2.0810989333333338
922,13.691619465157656
923,2.0810989333333338
924,14.116662142093818
925,31.17152745553612
926,8.225987866304182
927,0.3318789002328266
646,0.26666666666666669
648,0.0
2,1, 1, 1, 0, 1,30.00,45.00,Tuesday
6,7.075
239,1.036393331359209
312,21.233962625266434
313,38.97045851547586
349,40.25902357368777
350,14.233896127811667
599,0.0
600,0.0
603,5.1678689008470839
604,5.167868900846586
645,0.18902994536481383
647,0.05444593919289077
649,0.2333333333333333
650,0.5599999999999998
662,12.124087197408011
663,0.0
726,6.664275301276242
727,0.0
730,8.861975324984588
731,0.002305778756225356
734,4.458964905450111
735,0.005984753046644392
737,0.0
739,0.0
741,0.0
743,0.0
892,13.132921813859614
893,2.4087153333333339
894,7.075
895,1.2777496828169979
896,7.075
897,0.674564101517887
898,12.312901667544163
899,15.674810066666664
900,11.07533120626144
901,15.674810066666664
902,11.07533120626144
903,15.674810066666664
904,11.07533120626144
905,15.674810066666664
906,31.24567575897375
907,6.193596675988985
908,7.075
909,0.8606264534857618
910,7.075
911,0.4271217744998492
912,33.81762246595397
913,34.42752466666667
914,32.50484934254713
915,34.42752466666667
916,32.50484934254713
917,34.42752466666667
918,32.504008721891299
919,34.42752466666667
920,21.156233831090885
921,2.4087153333333339
922,13.325539099211462
923,2.4087153333333339
924,13.716651149193165
925,35.53034104163385
926,9.498617661438577
927,0.674564101517887
646,0.4666666666666666
648,0.2
2,1, 1, 1, 0, 1,45.00,60.00,Tuesday
6,7.2
239,1.0291740536845347
312,21.946853202815136
313,40.69172580813623
349,40.34263403114406
350,15.345320657136629
599,0.0
600,0.0
603,1108.3083680374882
604,1108.3083680374673
645,0.21194876073506606
647,0.07067955442081123
649,0.32666666666666668
650,0.5599999999999998
662,8.568810028277396
663,0.0
726,110.17621477884728
727,0.0
730,10.872746841644002
731,0.002197227112104839
734,6.147835851692293
735,0.0063324442843408199
737,0.0
739,0.0
741,0.0
743,0.0
892,13.412539070595733
893,2.806830666666667
894,7.200000000000003
895,1.5826003355821317
896,7.200000000000003
897,0.6159085195884433
898,13.606822817874237
899,16.15393793333333
900,11.76989043913532
901,16.15393793333333
902,11.76989043913532
903,16.15393793333333
904,11.76989043913532
905,16.15393793333333
906,26.586464074830347
907,6.320625249647389
908,7.200000000000003
909,1.8195727701039682
910,7.200000000000003
911,0.8234834471757638
912,29.424144628033905
913,30.66891126666666
914,27.136867908202267
915,30.66891126666666
916,27.136867908202267
917,30.66891126666666
918,26.981041717432484
919,30.66891126666666
920,21.9289893678275
921,2.806830666666667
922,15.169749291346882
923,2.806830666666667
924,15.536479191837185
925,31.405181843497453
926,9.330280287858898
927,0.6159085195884433
646,0.3333333333333333
648,0.13333333333333334
2,1, 1, 1, 0, 1, 0.00,60.00,Tuesday
133,11351.343128845536
134,7633.957252102935
135,1898.5300380948465
136,13936.849545599995
137,10219.334400000002
138,1898.5300380948465
139,20883.830419043315
173,2.798979240573073
174,13.608561599331376
175,6.295405830644983
176,0.6159524308218914
177,21.732832223071314
178,0.09466281759422941
179,1.0
180,0.0
181,0.0
182,0.0
183,0.0
184,0.0
185,1.0
186,0.0
187,0.0
188,0.0
189,0.0
190,0.0
191,-19.384047569178109
192,11351.343128845536
193,7633.957252102935
194,1898.5300380948465
195,13936.849545599995
196,10219.334400000002
197,1898.5300380948465
198,20883.830419043315
199,36098.977290829105
200,31951.11523106757
201,6805.009252189667
202,15546.354479999996
203,11399.520000000002
204,6805.009252189667
205,74855.10177408635
209,11.145634709652186
210,24.91566081474234
211,6.431795056464264
212,0.32678621389633358
213,32.32764726430578
214,0.09179635683476818
215,1.0
216,0.0
217,0.0
218,0.0
219,0.0
220,0.0
221,1.0
222,0.0
223,0.0
224,0.0
225,0.0
226,0.0
227,-19.673213786103667
228,36098.977290829105
229,31951.11523106757
230,6805.009252189667
231,15546.354479999996
232,11399.520000000002
233,6805.009252189667
234,74855.10177408635
315,20.0
316,23.0
352,20.0
353,23.0
387,0.0
388,0.0
422,0.0
423,0.0
525,0.0
526,0.0
527,0.0
528,0.0
529,0.0
530,0.0
531,1.0
532,0.0
533,0.0
534,0.0
535,0.0
536,0.0
537,0.0
538,0.0
539,0.0
540,0.0
314,4.0
351,4.0
386,0.0
421,0.0
517,95767.33219312967
518,3452.178763579558
519,99219.51095670922
520,0.0
521,0.0
522,0.03333333333333333
523,0.03333333333333333
524,0.06666666666666667
541,0.4147674548029979
542,0.4
543,1.1516126256018833
544,0.9137144950281935
545,0.4
546,0.6538629351029676
605,1037.4978165079226
606,0.3857136476525904
607,933.74803485713
608,3734992.139428521
639,2.5873614166666667
640,2152.9411558258907
641,0.29704961526093306
642,1937.647040243302
643,7750588.160973207
644,6.3859657139834768
766,226.00110503740013
788,10.208579838527104
789,10.101514970227062
790,258.76532650981837
802,9.923211269904917
803,9.925568948735501
2,1, 1, 1, 0, 2, 0.00,15.00,Tuesday
6,7.2
239,1.0266035881737686
312,21.598147214761935
313,41.8193039794548
349,39.484196811182247
350,17.153676104549697
599,0.0
600,0.0
603,17.290036073047138
604,17.290036073043525
645,0.1379569633799234
647,0.1262435106729444
649,0.32666666666666668
650,0.41999999999999995
662,11.74740681093928
663,0.0
726,32.84201443879413
727,0.0
730,8.546525753547148
731,0.002173516869592632
734,2.199202407266045
735,0.0031823694218523098
737,0.0
739,0.0
741,0.0
743,0.0
892,14.582560459689216
893,2.8408472666666668
894,7.200000000000003
895,1.2338573427940467
896,7.200000000000003
897,0.4765951993179574
898,14.481026388172213
899,17.9723036
900,13.392214971165215
901,17.9723036
902,13.392214971165215
903,17.9723036
904,13.392214971165215
905,17.9723036
906,27.823563973374474
907,6.259936182980723
908,7.200000000000003
909,1.1719988119900685
910,7.200000000000003
911,0.9050381602170641
912,33.01716966227641
913,34.39262213333334
914,29.498321354619909
915,34.39262213333334
916,29.498321354619909
917,34.39262213333334
918,29.495892775272606
919,34.39262213333334
920,21.5753740677618
921,2.8408472666666668
922,15.603001238429269
923,2.8408472666666668
924,15.957249931340782
925,33.860069824914948
926,9.319556885578669
927,0.4765951993179574
646,0.3333333333333333
648,0.39999999999999999
2,1, 1, 1, 0, 2,15.00,30.00,Tuesday
6,7.2
239,1.0304177319952926
312,21.725158719993748
313,40.95061983223099
349,38.98452500982645
350,17.552834182328753
599,0.0
600,0.0
603,0.0
604,0.0
645,0.1266922790608098
647,0.08275133214926862
649,0.18666666666666666
650,0.32666666666666668
662,4.730118761305181
663,0.0
726,6.590366314990711
727,0.0
730,4.174307803861967
731,0.0012314526563715835
734,0.05599639904029511
735,0.00005395031672143525
737,0.0
739,0.0
741,0.0
743,0.0
892,13.766618243796007
893,2.3079988
894,7.200000000000003
895,1.266671889596441
896,7.200000000000003
897,0.3769356380652955
898,12.717544855962175
899,14.349494066666664
900,11.9861193726721
901,14.349494066666664
902,11.9861193726721
903,14.349494066666664
904,11.9861193726721
905,14.349494066666664
906,31.879064124839077
907,6.405726649647389
908,7.200000000000003
909,0.6129538001049423
910,7.200000000000003
911,0.4880512446945475
912,36.00245297950176
913,36.18384353333333
914,33.62849469493474
915,36.18384353333333
916,33.62849469493474
917,36.18384353333333
918,33.62849469493474
919,36.18384353333333
920,21.739323816162618
921,2.3079988
922,13.04510405298192
923,2.3079988
924,13.442727090304928
925,36.01642987778167
926,9.033436102516637
927,0.3769356380652955