Program Version,EnergyPlus, Version 8.8.0-Unknown, YMD=2019.07.16 14:28
1,5,Environment Title[],Latitude[deg],Longitude[deg],Time Zone[],Elevation[m]
2,6,Day of Simulation[],Month[],Day of Month[],DST Indicator[1=yes 0=no],Hour[],StartMinute[],EndMinute[],DayType
3,3,Cumulative Day of Simulation[],Month[],Day of Month[],DST Indicator[1=yes 0=no],DayType  ! When Daily Report Variables Requested
4,2,Cumulative Days of Simulation[],Month[]  ! When Monthly Report Variables Requested
5,1,Cumulative Days of Simulation[] ! When Run Period Report Variables Requested
6,1,Environment,Site Outdoor Air Drybulb Temperature [C] !TimeStep
133,1,WESTDATACENTER_EQUIP,ITE CPU Electric Power [W] !Hourly
134,1,WESTDATACENTER_EQUIP,ITE Fan Electric Power [W] !Hourly
135,1,WESTDATACENTER_EQUIP,ITE UPS Electric Power [W] !Hourly
136,1,WESTDATACENTER_EQUIP,ITE CPU Electric Power at Design Inlet Conditions [W] !Hourly
137,1,WESTDATACENTER_EQUIP,ITE Fan Electric Power at Design Inlet Conditions [W] !Hourly
138,1,WESTDATACENTER_EQUIP,ITE UPS Heat Gain to Zone Rate [W] !Hourly
139,1,WESTDATACENTER_EQUIP,ITE Total Heat Gain to Zone Rate [W] !Hourly
173,1,WESTDATACENTER_EQUIP,ITE Standard Density Air Volume Flow Rate [m3/s] !Hourly
174,1,WESTDATACENTER_EQUIP,ITE Air Inlet Dry-Bulb Temperature [C] !Hourly
175,1,WESTDATACENTER_EQUIP,ITE Air Inlet Dewpoint Temperature [C] !Hourly
176,1,WESTDATACENTER_EQUIP,ITE Air Inlet Relative Humidity [%] !Hourly
177,1,WESTDATACENTER_EQUIP,ITE Air Outlet Dry-Bulb Temperature [C] !Hourly
178,1,WESTDATACENTER_EQUIP,ITE Supply Heat Index [] !Hourly
179,1,WESTDATACENTER_EQUIP,ITE Air Inlet Operating Range Exceeded Time [hr] !Hourly
180,1,WESTDATACENTER_EQUIP,ITE Air Inlet Dry-Bulb Temperature Above Operating Range Time [hr] !Hourly
181,1,WESTDATACENTER_EQUIP,ITE Air Inlet Dry-Bulb Temperature Below Operating Range Time [hr] !Hourly
182,1,WESTDATACENTER_EQUIP,ITE Air Inlet Dewpoint Temperature Above Operating Range Time [hr] !Hourly
183,1,WESTDATACENTER_EQUIP,ITE Air Inlet Dewpoint Temperature Below Operating Range Time [hr] !Hourly
184,1,WESTDATACENTER_EQUIP,ITE Air Inlet Relative Humidity Above Operating Range Time [hr] !Hourly
185,1,WESTDATACENTER_EQUIP,ITE Air Inlet Relative Humidity Below Operating Range Time [hr] !Hourly
186,1,WESTDATACENTER_EQUIP,ITE Air Inlet Dry-Bulb Temperature Difference Above Operating Range [deltaC] !Hourly
187,1,WESTDATACENTER_EQUIP,ITE Air Inlet Dry-Bulb Temperature Difference Below Operating Range [deltaC] !Hourly
188,1,WESTDATACENTER_EQUIP,ITE Air Inlet Dewpoint Temperature Difference Above Operating Range [deltaC] !Hourly
189,1,WESTDATACENTER_EQUIP,ITE Air Inlet Dewpoint Temperature Difference Below Operating Range [deltaC] !Hourly
190,1,WESTDATACENTER_EQUIP,ITE Air Inlet Relative Humidity Difference Above Operating Range [%] !Hourly
191,1,WESTDATACENTER_EQUIP,ITE Air Inlet Relative Humidity Difference Below Operating Range [%] !Hourly
192,1,WEST ZONE,Zone ITE CPU Electric Power [W] !Hourly
193,1,WEST ZONE,Zone ITE Fan Electric Power [W] !Hourly
194,1,WEST ZONE,Zone ITE UPS Electric Power [W] !Hourly
195,1,WEST ZONE,Zone ITE CPU Electric Power at Design Inlet Conditions [W] !Hourly
196,1,WEST ZONE,Zone ITE Fan Electric Power at Design Inlet Conditions [W] !Hourly
197,1,WEST ZONE,Zone ITE UPS Heat Gain to Zone Rate [W] !Hourly
198,1,WEST ZONE,Zone ITE Total Heat Gain to Zone Rate [W] !Hourly
199,1,EASTDATACENTER_EQUIP,ITE CPU Electric Power [W] !Hourly
200,1,EASTDATACENTER_EQUIP,ITE Fan Electric Power [W] !Hourly
201,1,EASTDATACENTER_EQUIP,ITE UPS Electric Power [W] !Hourly
202,1,EASTDATACENTER_EQUIP,ITE CPU Electric Power at Design Inlet Conditions [W] !Hourly
203,1,EASTDATACENTER_EQUIP,ITE Fan Electric Power at Design Inlet Conditions [W] !Hourly
204,1,EASTDATACENTER_EQUIP,ITE UPS Heat Gain to Zone Rate [W] !Hourly
205,1,EASTDATACENTER_EQUIP,ITE Total Heat Gain to Zone Rate [W] !Hourly
209,1,EASTDATACENTER_EQUIP,ITE Standard Density Air Volume Flow Rate [m3/s] !Hourly
210,1,EASTDATACENTER_EQUIP,ITE Air Inlet Dry-Bulb Temperature [C] !Hourly
211,1,EASTDATACENTER_EQUIP,ITE Air Inlet Dewpoint Temperature [C] !Hourly
212,1,EASTDATACENTER_EQUIP,ITE Air Inlet Relative Humidity [%] !Hourly
213,1,EASTDATACENTER_EQUIP,ITE Air Outlet Dry-Bulb Temperature [C] !Hourly
214,1,EASTDATACENTER_EQUIP,ITE Supply Heat Index [] !Hourly
215,1,EASTDATACENTER_EQUIP,ITE Air Inlet Operating Range Exceeded Time [hr] !Hourly
216,1,EASTDATACENTER_EQUIP,ITE Air Inlet Dry-Bulb Temperature Above Operating Range Time [hr] !Hourly
217,1,EASTDATACENTER_EQUIP,ITE Air Inlet Dry-Bulb Temperature Below Operating Range Time [hr] !Hourly
218,1,EASTDATACENTER_EQUIP,ITE Air Inlet Dewpoint Temperature Above Operating Range Time [hr] !Hourly
219,1,EASTDATACENTER_EQUIP,ITE Air Inlet Dewpoint Temperature Below Operating Range Time [hr] !Hourly
220,1,EASTDATACENTER_EQUIP,ITE Air Inlet Relative Humidity Above Operating Range Time [hr] !Hourly
221,1,EASTDATACENTER_EQUIP,ITE Air Inlet Relative Humidity Below Operating Range Time [hr] !Hourly
222,1,EASTDATACENTER_EQUIP,ITE Air Inlet Dry-Bulb Temperature Difference Above Operating Range [deltaC] !Hourly
223,1,EASTDATACENTER_EQUIP,ITE Air Inlet Dry-Bulb Temperature Difference Below Operating Range [deltaC] !Hourly
224,1,EASTDATACENTER_EQUIP,ITE Air Inlet Dewpoint Temperature Difference Above Operating Range [deltaC] !Hourly
225,1,EASTDATACENTER_EQUIP,ITE Air Inlet Dewpoint Temperature Difference Below Operating Range [deltaC] !Hourly
226,1,EASTDATACENTER_EQUIP,ITE Air Inlet Relative Humidity Difference Above Operating Range [%] !Hourly
227,1,EASTDATACENTER_EQUIP,ITE Air Inlet Relative Humidity Difference Below Operating Range [%] !Hourly
228,1,EAST ZONE,Zone ITE CPU Electric Power [W] !Hourly
229,1,EAST ZONE,Zone ITE Fan Electric Power [W] !Hourly
230,1,EAST ZONE,Zone ITE UPS Electric Power [W] !Hourly
231,1,EAST ZONE,Zone ITE CPU Electric Power at Design Inlet Conditions [W] !Hourly
232,1,EAST ZONE,Zone ITE Fan Electric Power at Design Inlet Conditions [W] !Hourly
233,1,EAST ZONE,Zone ITE UPS Heat Gain to Zone Rate [W] !Hourly
234,1,EAST ZONE,Zone ITE Total Heat Gain to Zone Rate [W] !Hourly
239,1,EMS,Power Utilization Effectiveness [] !TimeStep
312,1,WEST ZONE,Zone Air Temperature [C] !TimeStep
313,1,WEST ZONE,Zone Air Relative Humidity [%] !TimeStep
314,1,WEST ZONE,Zone Thermostat Control Type [] !Hourly
315,1,WEST ZONE,Zone Thermostat Heating Setpoint Temperature [C] !Hourly
316,1,WEST ZONE,Zone Thermostat Cooling Setpoint Temperature [C] !Hourly
349,1,EAST ZONE,Zone Air Temperature [C] !TimeStep
350,1,EAST ZONE,Zone Air Relative Humidity [%] !TimeStep
351,1,EAST ZONE,Zone Thermostat Control Type [] !Hourly
352,1,EAST ZONE,Zone Thermostat Heating Setpoint Temperature [C] !Hourly
353,1,EAST ZONE,Zone Thermostat Cooling Setpoint Temperature [C] !Hourly
386,1,WEST PLENUM,Zone Thermostat Control Type [] !Hourly
387,1,WEST PLENUM,Zone Thermostat Heating Setpoint Temperature [C] !Hourly
388,1,WEST PLENUM,Zone Thermostat Cooling Setpoint Temperature [C] !Hourly
421,1,EAST PLENUM,Zone Thermostat Control Type [] !Hourly
422,1,EAST PLENUM,Zone Thermostat Heating Setpoint Temperature [C] !Hourly
423,1,EAST PLENUM,Zone Thermostat Cooling Setpoint Temperature [C] !Hourly
517,1,Whole Building,Facility Total Building Electric Demand Power [W] !Hourly
518,1,Whole Building,Facility Total HVAC Electric Demand Power [W] !Hourly
519,1,Whole Building,Facility Total Electric Demand Power [W] !Hourly
520,1,WEST ZONE,Zone Oscillating Temperatures Time [hr] !Hourly
521,1,EAST ZONE,Zone Oscillating Temperatures Time [hr] !Hourly
522,1,WEST PLENUM,Zone Oscillating Temperatures Time [hr] !Hourly
523,1,EAST PLENUM,Zone Oscillating Temperatures Time [hr] !Hourly
524,1,Facility,Facility Any Zone Oscillating Temperatures Time [hr] !Hourly
525,1,WEST ZONE,Zone Heating Setpoint Not Met Time [hr] !Hourly
526,1,WEST ZONE,Zone Heating Setpoint Not Met While Occupied Time [hr] !Hourly
527,1,WEST ZONE,Zone Cooling Setpoint Not Met Time [hr] !Hourly
528,1,WEST ZONE,Zone Cooling Setpoint Not Met While Occupied Time [hr] !Hourly
529,1,EAST ZONE,Zone Heating Setpoint Not Met Time [hr] !Hourly
530,1,EAST ZONE,Zone Heating Setpoint Not Met While Occupied Time [hr] !Hourly
531,1,EAST ZONE,Zone Cooling Setpoint Not Met Time [hr] !Hourly
532,1,EAST ZONE,Zone Cooling Setpoint Not Met While Occupied Time [hr] !Hourly
533,1,WEST PLENUM,Zone Heating Setpoint Not Met Time [hr] !Hourly
534,1,WEST PLENUM,Zone Heating Setpoint Not Met While Occupied Time [hr] !Hourly
535,1,WEST PLENUM,Zone Cooling Setpoint Not Met Time [hr] !Hourly
536,1,WEST PLENUM,Zone Cooling Setpoint Not Met While Occupied Time [hr] !Hourly
537,1,EAST PLENUM,Zone Heating Setpoint Not Met Time [hr] !Hourly
538,1,EAST PLENUM,Zone Heating Setpoint Not Met While Occupied Time [hr] !Hourly
539,1,EAST PLENUM,Zone Cooling Setpoint Not Met Time [hr] !Hourly
540,1,EAST PLENUM,Zone Cooling Setpoint Not Met While Occupied Time [hr] !Hourly
541,1,WEST ZONE VAV SYSTEM,Zone Air Terminal VAV Damper Position [] !Hourly
542,1,WEST ZONE VAV SYSTEM,Zone Air Terminal Minimum Air Flow Fraction [] !Hourly
543,1,WEST ZONE VAV SYSTEM,Zone Air Terminal Outdoor Air Volume Flow Rate [m3/s] !Hourly
544,1,EAST ZONE VAV SYSTEM,Zone Air Terminal VAV Damper Position [] !Hourly
545,1,EAST ZONE VAV SYSTEM,Zone Air Terminal Minimum Air Flow Fraction [] !Hourly
546,1,EAST ZONE VAV SYSTEM,Zone Air Terminal Outdoor Air Volume Flow Rate [m3/s] !Hourly
599,1,WEST ZONE CW COOLING COIL,Cooling Coil Total Cooling Rate [W] !TimeStep
600,1,WEST ZONE CW COOLING COIL,Cooling Coil Sensible Cooling Rate [W] !TimeStep
603,1,EAST ZONE CW COOLING COIL,Cooling Coil Total Cooling Rate [W] !TimeStep
604,1,EAST ZONE CW COOLING COIL,Cooling Coil Sensible Cooling Rate [W] !TimeStep
605,1,WEST ZONE SUPPLY FAN,Fan Electric Power [W] !Hourly
606,1,WEST ZONE SUPPLY FAN,Fan Rise in Air Temperature [deltaC] !Hourly
607,1,WEST ZONE SUPPLY FAN,Fan Heat Gain to Air [W] !Hourly
608,1,WEST ZONE SUPPLY FAN,Fan Electric Energy [J] !Hourly
639,1,WEST ZONE SUPPLY FAN,Fan Air Mass Flow Rate [kg/s] !Hourly
640,1,EAST ZONE SUPPLY FAN,Fan Electric Power [W] !Hourly
641,1,EAST ZONE SUPPLY FAN,Fan Rise in Air Temperature [deltaC] !Hourly
642,1,EAST ZONE SUPPLY FAN,Fan Heat Gain to Air [W] !Hourly
643,1,EAST ZONE SUPPLY FAN,Fan Electric Energy [J] !Hourly
644,1,EAST ZONE SUPPLY FAN,Fan Air Mass Flow Rate [kg/s] !Hourly
645,1,WEST DATA CENTER IEC,Evaporative Cooler Total Stage Effectiveness [] !TimeStep
646,1,WEST DATA CENTER IEC,Evaporative Cooler Operating Mode Status [] !TimeStep
647,1,EAST DATA CENTER IEC,Evaporative Cooler Total Stage Effectiveness [] !TimeStep
648,1,EAST DATA CENTER IEC,Evaporative Cooler Operating Mode Status [] !TimeStep
649,1,WEST DATA CENTER DEC,Evaporative Cooler Stage Effectiveness [] !TimeStep
650,1,EAST DATA CENTER DEC,Evaporative Cooler Stage Effectiveness [] !TimeStep
662,1,WEST DATA CENTER IEC,Evaporative Cooler Electric Power [W] !TimeStep
663,1,WEST DATA CENTER IEC,Evaporative Cooler Water Volume [m3] !TimeStep
726,1,EAST DATA CENTER IEC,Evaporative Cooler Electric Power [W] !TimeStep
727,1,EAST DATA CENTER IEC,Evaporative Cooler Water Volume [m3] !TimeStep
730,1,WEST DATA CENTER DEC,Evaporative Cooler Electric Power [W] !TimeStep
731,1,WEST DATA CENTER DEC,Evaporative Cooler Water Volume [m3] !TimeStep
734,1,EAST DATA CENTER DEC,Evaporative Cooler Electric Power [W] !TimeStep
735,1,EAST DATA CENTER DEC,Evaporative Cooler Water Volume [m3] !TimeStep
737,1,WEST DX COOLING COIL,Cooling Coil Total Cooling Rate [W] !TimeStep
739,1,WEST DX COOLING COIL,Cooling Coil Sensible Cooling Rate [W] !TimeStep
741,1,EAST DX COOLING COIL,Cooling Coil Total Cooling Rate [W] !TimeStep
743,1,EAST DX COOLING COIL,Cooling Coil Sensible Cooling Rate [W] !TimeStep
766,1,CHILLER,Chiller Evaporator Cooling Rate [W] !Hourly
788,1,CHILLER,Chiller Evaporator Inlet Temperature [C] !Hourly
789,1,CHILLER,Chiller Evaporator Outlet Temperature [C] !Hourly
790,1,CHILLER,Chiller Condenser Heat Transfer Rate [W] !Hourly
802,1,CHILLER,Chiller Condenser Inlet Temperature [C] !Hourly
803,1,CHILLER,Chiller Condenser Outlet Temperature [C] !Hourly
892,1,WEST ZONE INLET NODE,System Node Temperature [C] !TimeStep
893,1,WEST ZONE INLET NODE,System Node Mass Flow Rate [kg/s] !TimeStep
894,1,WEST OUTSIDE AIR INLET NODE,System Node Temperature [C] !TimeStep
895,1,WEST OUTSIDE AIR INLET NODE,System Node Mass Flow Rate [kg/s] !TimeStep
896,1,WEST IEC SECONDARY AIR INLET NODE,System Node Temperature [C] !TimeStep
897,1,WEST IEC SECONDARY AIR INLET NODE,System Node Mass Flow Rate [kg/s] !TimeStep
898,1,WEST ZONE DEC OUTLET NODE,System Node Temperature [C] !TimeStep
899,1,WEST ZONE DEC OUTLET NODE,System Node Setpoint Temperature [C] !TimeStep
900,1,WEST ZONE IEC OUTLET NODE,System Node Temperature [C] !TimeStep
901,1,WEST ZONE IEC OUTLET NODE,System Node Setpoint Temperature [C] !TimeStep
902,1,WEST ZONE CCOIL AIR OUTLET NODE,System Node Temperature [C] !TimeStep
903,1,WEST ZONE CCOIL AIR OUTLET NODE,System Node Setpoint Temperature [C] !TimeStep
904,1,WEST AIR LOOP OUTLET NODE,System Node Temperature [C] !TimeStep
905,1,WEST AIR LOOP OUTLET NODE,System Node Setpoint Temperature [C] !TimeStep
906,1,EAST ZONE INLET NODE,System Node Temperature [C] !TimeStep
907,1,EAST ZONE INLET NODE,System Node Mass Flow Rate [kg/s] !TimeStep
908,1,EAST OUTSIDE AIR INLET NODE,System Node Temperature [C] !TimeStep
909,1,EAST OUTSIDE AIR INLET NODE,System Node Mass Flow Rate [kg/s] !TimeStep
910,1,EAST IEC SECONDARY AIR INLET NODE,System Node Temperature [C] !TimeStep
911,1,EAST IEC SECONDARY AIR INLET NODE,System Node Mass Flow Rate [kg/s] !TimeStep
912,1,EAST ZONE DEC OUTLET NODE,System Node Temperature [C] !TimeStep
913,1,EAST ZONE DEC OUTLET NODE,System Node Setpoint Temperature [C] !TimeStep
914,1,EAST ZONE IEC OUTLET NODE,System Node Temperature [C] !TimeStep
915,1,EAST ZONE IEC OUTLET NODE,System Node Setpoint Temperature [C] !TimeStep
916,1,EAST ZONE CCOIL AIR OUTLET NODE,System Node Temperature [C] !TimeStep
917,1,EAST ZONE CCOIL AIR OUTLET NODE,System Node Setpoint Temperature [C] !TimeStep
918,1,EAST AIR LOOP OUTLET NODE,System Node Temperature [C] !TimeStep
919,1,EAST AIR LOOP OUTLET NODE,System Node Setpoint Temperature [C] !TimeStep
920,1,WEST ZONE RETURN AIR NODE,System Node Temperature [C] !TimeStep
921,1,WEST ZONE RETURN AIR NODE,System Node Mass Flow Rate [kg/s] !TimeStep
922,1,WEST ZONE MIXED AIR NODE,System Node Temperature [C] !TimeStep
923,1,WEST ZONE MIXED AIR NODE,System Node Mass Flow Rate [kg/s] !TimeStep
924,1,WEST ZONE SUPPLY FAN OUTLET NODE,System Node Temperature [C] !TimeStep
925,1,EAST ZONE SUPPLY FAN OUTLET NODE,System Node Temperature [C] !TimeStep
926,1,WEST IEC SECONDARY AIR OUTLET NODE,System Node Temperature [C] !TimeStep
927,1,WEST IEC SECONDARY AIR OUTLET NODE,System Node Mass Flow Rate [kg/s] !TimeStep
End of Data Dictionary
1,WHOLEYEARDAY,  37.62,-122.40,  -8.00,   2.00
2,1, 1, 1, 0, 1, 0.00,15.00,Tuesday
6,6.825
239,1.0300298866314462
312,23.210628225399096
313,30.34144488251921
349,21.59187018647482
350,34.92919414587572
599,0.0
600,0.0
603,0.0
604,0.0
645,0.045988868279461667
647,0.019707298378102798
649,0.5599999999999998
650,0.6533333333333331
662,1.2356847120148354
663,0.0
726,1.8492329978244833
727,0.0
730,6.944941693362683
731,0.0022485758941896006
734,5.447324257955159
735,0.004410002471118266
737,0.0
739,0.0
741,0.0
743,0.0
892,17.068189134116904
893,2.7281903561722564
894,6.825
895,0.7431609482545368
896,6.825
897,0.11379673306196267
898,17.804781391052594
899,20.5465886
900,17.335852061498565
901,20.5465886
902,17.335852061498565
903,20.5465886
904,17.335852061498565
905,20.5465886
906,18.422437136453195
907,6.892950027966954
908,6.825
909,0.6149940481575107
910,6.825
911,0.14262326824842964
912,19.470551676057086
913,30.5706568
914,19.291568160496597
915,30.5706568
916,19.291568160496597
917,30.5706568
918,19.291568160496597
919,30.5706568
920,23.24370146133686
921,2.7281903561722564
922,19.081463574816146
923,2.7281903561722564
924,19.463030671359257
925,20.667413789599384
926,7.308598798843039
927,0.11379673306196267
646,0.06666666666666667
648,0.06666666666666667
2,1, 1, 1, 0, 1,15.00,30.00,Tuesday
6,6.95
239,1.0816761518993059
312,25.266265523133993
313,32.58402843302747
349,28.198647557464424
350,26.626296479145059
599,0.0
600,0.0
603,0.0
604,0.0
645,0.10487181244502111
647,0.010599478898681483
649,0.41999999999999995
650,0.6533333333333331
662,1.9185192474158255
663,0.0
726,0.03627946540183113
727,0.0
730,15.242048503251496
731,0.00534865968091044
734,3.1865030845197874
735,0.004096918542072937
737,0.0
739,0.0
741,0.0
743,0.0
892,15.683144257479665
893,3.0706160000000004
894,6.9499999999999979
895,1.1436843880618073
896,6.9499999999999979
897,0.2962747544612261
898,15.235896382395469
899,18.918536933333333
900,14.424435131099627
901,18.918536933333333
902,14.424435131099627
903,18.918536933333333
904,14.424435131099627
905,18.918536933333333
906,23.910126840390327
907,6.989016534958693
908,6.9499999999999979
909,0.7344718168375366
910,6.9499999999999979
911,0.03680472806993876
912,24.63872179992564
913,32.5170372
914,24.56245949301693
915,32.5170372
916,24.56245949301693
917,32.5170372
918,24.56245949301693
919,32.5170372
920,25.177158318579875
921,3.0706160000000004
922,17.96008643662736
923,3.0706160000000004
924,18.32102278772866
925,25.697013329559597
926,10.044644140741303
927,0.2962747544612261
646,0.39999999999999999
648,0.06666666666666667
2,1, 1, 1, 0, 1,30.00,45.00,Tuesday
6,7.075
239,1.0424781816635128
312,24.837723619793274
313,37.400759755279597
349,32.99622029519497
350,23.98854158103608
599,0.0
600,0.0
603,0.0
604,0.0
645,0.07440518458945103
647,0.011661721155371561
649,0.5599999999999998
650,0.6533333333333331
662,5.587756706030368
663,0.0
726,0.10174347766846263
727,0.0
730,8.285011235091977
731,0.003372979483361683
734,9.11643240121517
735,0.008888682970208015
737,0.0
739,0.0
741,0.0
743,0.0
892,17.701077534684523
893,3.6522182
894,7.075
895,0.9275655091376758
896,7.075
897,0.28207354242311208
898,19.012673392694095
899,24.42186793333333
900,18.365239418711814
901,24.42186793333333
902,18.365239418711814
903,24.42186793333333
904,18.365239418711814
905,24.42186793333333
906,24.60790613054844
907,6.989016534958693
908,7.075
909,1.5149151860409159
910,7.075
911,0.049235757919799557
912,25.132071595592877
913,28.956533866666676
914,25.058427573176233
915,28.956533866666676
916,25.058427573176233
917,28.956533866666676
918,25.058427573176233
919,28.956533866666676
920,24.943159512981059
921,3.6522182
922,20.364019857768754
923,3.6522182
924,20.669619431407843
925,27.427363991298557
926,8.93188597024994
927,0.28207354242311208
646,0.2
648,0.06666666666666667
2,1, 1, 1, 0, 1,45.00,60.00,Tuesday
6,7.2
239,1.033591480314617
312,28.740109027868646
313,31.328346570097489
349,36.84209022243625
350,19.99389074720307
599,0.0
600,0.0
603,0.0
604,0.0
645,0.11573424099119408
647,0.012968959365076817
649,0.549999999999999
650,0.6499999999999989
662,31.50590828767541
663,0.0
726,0.44023481309096026
727,0.0
730,9.800691627549073
731,0.003911735918399476
734,3.473890167188043
735,0.004385524088589703
737,0.0
739,0.0
741,0.0
743,0.0
892,19.2576681941628
893,2.970752428571423
894,7.199999999999987
895,0.746310903987194
896,7.199999999999987
897,0.6374116397904696
898,20.869298576061007
899,24.19296671428567
900,19.239263377343418
901,24.19296671428567
902,19.239263377343418
903,24.19296671428567
904,19.239263377343418
905,24.19296671428567
906,29.238678679039795
907,6.799527244250297
908,7.199999999999987
909,1.0874092966666674
910,7.199999999999987
911,0.08577021818513826
912,30.79166941468266
913,32.72691857142851
914,30.417069174863728
915,32.72691857142851
916,30.417069174863728
917,32.72691857142851
918,30.417069174863728
919,32.72691857142851
920,28.415810384325224
921,2.970752428571423
922,22.84506124672599
923,2.970752428571423
924,23.20682742666585
925,31.93576005905924
926,9.90248130037125
927,0.6374116397904696
646,0.2142857142857139
648,0.0714285714285713
2,1, 1, 1, 0, 1, 0.00,60.00,Tuesday
133,16594.13837109704
134,12876.490367698663
135,2947.0628738795695
136,13936.849545599995
137,10219.334400000002
138,2947.0628738795695
139,32417.691612675273
173,4.667244712808924
174,16.4300694399767
175,6.537191456647887
176,0.5194344069356024
177,24.00770618916284
178,0.09173405095188708
179,1.0
180,0.0
181,0.0
182,0.0
183,0.0
184,0.0
185,1.0
186,0.0
187,0.0
188,0.0
189,0.0
190,0.0
191,-19.480565593064399
192,16594.13837109704
193,12876.490367698663
194,2947.0628738795695
195,13936.849545599995
196,10219.334400000002
197,2947.0628738795695
198,32417.691612675273
199,28012.982751659096
200,23865.524971410538
201,5187.850772306962
202,15546.354479999996
203,11399.520000000002
204,5187.850772306962
205,57066.3584953766
209,8.449463542580725
210,21.014553888475825
211,8.938558263775235
212,0.4616771605807419
213,28.43299024585648
214,0.07490061262272377
215,1.0
216,0.0
217,0.0
218,0.0
219,0.0
220,0.0
221,1.0
222,0.0
223,0.0
224,0.0
225,0.0
226,0.0
227,-19.53832283941926
228,28012.982751659096
229,23865.524971410538
230,5187.850772306962
231,15546.354479999996
232,11399.520000000002
233,5187.850772306962
234,57066.3584953766
315,20.0
316,23.0
352,20.0
353,23.0
387,0.0
388,0.0
422,0.0
423,0.0
525,0.0
526,0.0
527,0.75
528,0.0
529,0.0
530,0.0
531,0.75
532,0.0
533,0.0
534,0.0
535,0.0
536,0.0
537,0.0
538,0.0
539,0.0
540,0.0
314,4.0
351,4.0
386,0.0
421,0.0
517,89512.45010805183
518,3589.6201849592917
519,93102.0702930111
520,0.0
521,0.0
522,0.06785714285714287
523,0.08571428571428572
524,0.15357142857142859
541,0.4978188194838835
542,0.39999999999999988
543,0.7393382825606538
544,0.9897855515052868
545,0.39999999999999988
546,0.8205386700515808
605,1139.3003704256587
606,0.3524673003058404
607,1025.3703333830929
608,4101481.333532373
639,3.10544424618592
640,2424.276763864319
641,0.3099483382035379
642,2181.849087477887
643,8727396.349911552
644,6.917627585533659
766,0.0
788,10.20427506541663
789,10.20427506541663
790,0.0
802,9.93251222702314
803,9.93251222702314
2,1, 1, 1, 0, 2, 0.00,15.00,Tuesday
6,7.2
239,1.02977628996927
312,28.015035766073568
313,31.943255795172136
349,32.53126355699222
350,27.33899644342084
599,0.0
600,0.0
603,0.0
604,0.0
645,0.1783597257861483
647,0.16543043482392068
649,0.32666666666666668
650,0.3733333333333333
662,27.096733995095705
663,0.0
726,88.84627511249788
727,0.0
730,10.0
731,0.004933864169492573
734,8.0
735,0.006988672570908017
737,0.0
739,0.0
741,0.0
743,0.0
892,15.863126252018866
893,3.1809190456778468
894,7.200000000000003
895,1.4418676335454644
896,7.200000000000003
897,0.96164034517255
898,16.364799552979059
899,19.870804200000003
900,14.603553291547156
901,19.870804200000003
902,14.603553291547156
903,19.870804200000003
904,14.603553291547156
905,19.870804200000003
906,21.59358299402765
907,6.989016534958693
908,7.200000000000003
909,1.9224388241779534
910,7.200000000000003
911,1.4522280319553834
912,24.43818852719551
913,29.966434266666668
914,21.570626515224743
915,29.966434266666668
916,21.570626515224743
917,29.966434266666668
918,21.570626515224743
919,29.966434266666668
920,28.033385148985795
921,3.1809190456778468
922,18.124929901612846
923,3.1809190456778468
924,18.49479395843879
925,26.238159514690186
926,10.696921713908479
927,0.96164034517255
646,0.39999999999999999
648,0.39999999999999999
2,1, 1, 1, 0, 2,15.00,30.00,Tuesday
6,7.2
239,1.0371124058136299
312,23.55504386132404
313,41.89502316628431
349,35.09892406534367
350,24.494274261238567
599,0.0
600,0.0
603,0.0
604,0.0
645,0.17259103540752852
647,0.10966748066622265
649,0.41999999999999995
650,0.5133333333333332
662,99.8694034436523
663,0.0
726,23.35915697934244
727,0.0
730,9.943492991884164
731,0.0030459470588664226
734,5.325786486280062
735,0.0060326900152474
737,796.0251377966688
739,46.30932932730872
741,0.0
743,0.0
892,15.617512776797739
893,3.2835107333333339
894,7.200000000000003
895,1.3372836322025373
896,7.200000000000003
897,0.944609563963208
898,15.823004621243943
899,21.921996999999999
900,14.195933870709869
901,21.921996999999999
902,14.169965137287058
903,21.921996999999999
904,14.169965137287058
905,21.921996999999999
906,24.912592671287066
907,6.661525530297533
908,7.200000000000003
909,1.2240149798940699
910,7.200000000000003
911,0.8720632911648528
912,28.79540209451084
913,32.16904666666667
914,26.380294096230374
915,32.16904666666667
916,26.380294096230374
917,32.16904666666667
918,26.380294096230374
919,32.16904666666667
920,23.90328557552251
921,3.2835107333333339
922,17.38161368741962
923,3.2835107333333339
924