Program Version,EnergyPlus, Version 8.8.0-Unknown, YMD=2019.07.16 14:21
1,5,Environment Title[],Latitude[deg],Longitude[deg],Time Zone[],Elevation[m]
2,6,Day of Simulation[],Month[],Day of Month[],DST Indicator[1=yes 0=no],Hour[],StartMinute[],EndMinute[],DayType
3,3,Cumulative Day of Simulation[],Month[],Day of Month[],DST Indicator[1=yes 0=no],DayType  ! When Daily Report Variables Requested
4,2,Cumulative Days of Simulation[],Month[]  ! When Monthly Report Variables Requested
5,1,Cumulative Days of Simulation[] ! When Run Period Report Variables Requested
6,1,Environment,Site Outdoor Air Drybulb Temperature [C] !TimeStep
133,1,WESTDATACENTER_EQUIP,ITE CPU Electric Power [W] !Hourly
134,1,WESTDATACENTER_EQUIP,ITE Fan Electric Power [W] !Hourly
135,1,WESTDATACENTER_EQUIP,ITE UPS Electric Power [W] !Hourly
136,1,WESTDATACENTER_EQUIP,ITE CPU Electric Power at Design Inlet Conditions [W] !Hourly
137,1,WESTDATACENTER_EQUIP,ITE Fan Electric Power at Design Inlet Conditions [W] !Hourly
138,1,WESTDATACENTER_EQUIP,ITE UPS Heat Gain to Zone Rate [W] !Hourly
139,1,WESTDATACENTER_EQUIP,ITE Total Heat Gain to Zone Rate [W] !Hourly
173,1,WESTDATACENTER_EQUIP,ITE Standard Density Air Volume Flow Rate [m3/s] !Hourly
174,1,WESTDATACENTER_EQUIP,ITE Air Inlet Dry-Bulb Temperature [C] !Hourly
175,1,WESTDATACENTER_EQUIP,ITE Air Inlet Dewpoint Temperature [C] !Hourly
176,1,WESTDATACENTER_EQUIP,ITE Air Inlet Relative Humidity [%] !Hourly
177,1,WESTDATACENTER_EQUIP,ITE Air Outlet Dry-Bulb Temperature [C] !Hourly
178,1,WESTDATACENTER_EQUIP,ITE Supply Heat Index [] !Hourly
179,1,WESTDATACENTER_EQUIP,ITE Air Inlet Operating Range Exceeded Time [hr] !Hourly
180,1,WESTDATACENTER_EQUIP,ITE Air Inlet Dry-Bulb Temperature Above Operating Range Time [hr] !Hourly
181,1,WESTDATACENTER_EQUIP,ITE Air Inlet Dry-Bulb Temperature Below Operating Range Time [hr] !Hourly
182,1,WESTDATACENTER_EQUIP,ITE Air Inlet Dewpoint Temperature Above Operating Range Time [hr] !Hourly
183,1,WESTDATACENTER_EQUIP,ITE Air Inlet Dewpoint Temperature Below Operating Range Time [hr] !Hourly
184,1,WESTDATACENTER_EQUIP,ITE Air Inlet Relative Humidity Above Operating Range Time [hr] !Hourly
185,1,WESTDATACENTER_EQUIP,ITE Air Inlet Relative Humidity Below Operating Range Time [hr] !Hourly
186,1,WESTDATACENTER_EQUIP,ITE Air Inlet Dry-Bulb Temperature Difference Above Operating Range [deltaC] !Hourly
187,1,WESTDATACENTER_EQUIP,ITE Air Inlet Dry-Bulb Temperature Difference Below Operating Range [deltaC] !Hourly
188,1,WESTDATACENTER_EQUIP,ITE Air Inlet Dewpoint Temperature Difference Above Operating Range [deltaC] !Hourly
189,1,WESTDATACENTER_EQUIP,ITE Air Inlet Dewpoint Temperature Difference Below Operating Range [deltaC] !Hourly
190,1,WESTDATACENTER_EQUIP,ITE Air Inlet Relative Humidity Difference Above Operating Range [%] !Hourly
191,1,WESTDATACENTER_EQUIP,ITE Air Inlet Relative Humidity Difference Below Operating Range [%] !Hourly
192,1,WEST ZONE,Zone ITE CPU Electric Power [W] !Hourly
193,1,WEST ZONE,Zone ITE Fan Electric Power [W] !Hourly
194,1,WEST ZONE,Zone ITE UPS Electric Power [W] !Hourly
195,1,WEST ZONE,Zone ITE CPU Electric Power at Design Inlet Conditions [W] !Hourly
196,1,WEST ZONE,Zone ITE Fan Electric Power at Design Inlet Conditions [W] !Hourly
197,1,WEST ZONE,Zone ITE UPS Heat Gain to Zone Rate [W] !Hourly
198,1,WEST ZONE,Zone ITE Total Heat Gain to Zone Rate [W] !Hourly
199,1,EASTDATACENTER_EQUIP,ITE CPU Electric Power [W] !Hourly
200,1,EASTDATACENTER_EQUIP,ITE Fan Electric Power [W] !Hourly
201,1,EASTDATACENTER_EQUIP,ITE UPS Electric Power [W] !Hourly
202,1,EASTDATACENTER_EQUIP,ITE CPU Electric Power at Design Inlet Conditions [W] !Hourly
203,1,EASTDATACENTER_EQUIP,ITE Fan Electric Power at Design Inlet Conditions [W] !Hourly
204,1,EASTDATACENTER_EQUIP,ITE UPS Heat Gain to Zone Rate [W] !Hourly
205,1,EASTDATACENTER_EQUIP,ITE Total Heat Gain to Zone Rate [W] !Hourly
209,1,EASTDATACENTER_EQUIP,ITE Standard Density Air Volume Flow Rate [m3/s] !Hourly
210,1,EASTDATACENTER_EQUIP,ITE Air Inlet Dry-Bulb Temperature [C] !Hourly
211,1,EASTDATACENTER_EQUIP,ITE Air Inlet Dewpoint Temperature [C] !Hourly
212,1,EASTDATACENTER_EQUIP,ITE Air Inlet Relative Humidity [%] !Hourly
213,1,EASTDATACENTER_EQUIP,ITE Air Outlet Dry-Bulb Temperature [C] !Hourly
214,1,EASTDATACENTER_EQUIP,ITE Supply Heat Index [] !Hourly
215,1,EASTDATACENTER_EQUIP,ITE Air Inlet Operating Range Exceeded Time [hr] !Hourly
216,1,EASTDATACENTER_EQUIP,ITE Air Inlet Dry-Bulb Temperature Above Operating Range Time [hr] !Hourly
217,1,EASTDATACENTER_EQUIP,ITE Air Inlet Dry-Bulb Temperature Below Operating Range Time [hr] !Hourly
218,1,EASTDATACENTER_EQUIP,ITE Air Inlet Dewpoint Temperature Above Operating Range Time [hr] !Hourly
219,1,EASTDATACENTER_EQUIP,ITE Air Inlet Dewpoint Temperature Below Operating Range Time [hr] !Hourly
220,1,EASTDATACENTER_EQUIP,ITE Air Inlet Relative Humidity Above Operating Range Time [hr] !Hourly
221,1,EASTDATACENTER_EQUIP,ITE Air Inlet Relative Humidity Below Operating Range Time [hr] !Hourly
222,1,EASTDATACENTER_EQUIP,ITE Air Inlet Dry-Bulb Temperature Difference Above Operating Range [deltaC] !Hourly
223,1,EASTDATACENTER_EQUIP,ITE Air Inlet Dry-Bulb Temperature Difference Below Operating Range [deltaC] !Hourly
224,1,EASTDATACENTER_EQUIP,ITE Air Inlet Dewpoint Temperature Difference Above Operating Range [deltaC] !Hourly
225,1,EASTDATACENTER_EQUIP,ITE Air Inlet Dewpoint Temperature Difference Below Operating Range [deltaC] !Hourly
226,1,EASTDATACENTER_EQUIP,ITE Air Inlet Relative Humidity Difference Above Operating Range [%] !Hourly
227,1,EASTDATACENTER_EQUIP,ITE Air Inlet Relative Humidity Difference Below Operating Range [%] !Hourly
228,1,EAST ZONE,Zone ITE CPU Electric Power [W] !Hourly
229,1,EAST ZONE,Zone ITE Fan Electric Power [W] !Hourly
230,1,EAST ZONE,Zone ITE UPS Electric Power [W] !Hourly
231,1,EAST ZONE,Zone ITE CPU Electric Power at Design Inlet Conditions [W] !Hourly
232,1,EAST ZONE,Zone ITE Fan Electric Power at Design Inlet Conditions [W] !Hourly
233,1,EAST ZONE,Zone ITE UPS Heat Gain to Zone Rate [W] !Hourly
234,1,EAST ZONE,Zone ITE Total Heat Gain to Zone Rate [W] !Hourly
239,1,EMS,Power Utilization Effectiveness [] !TimeStep
312,1,WEST ZONE,Zone Air Temperature [C] !TimeStep
313,1,WEST ZONE,Zone Air Relative Humidity [%] !TimeStep
314,1,WEST ZONE,Zone Thermostat Control Type [] !Hourly
315,1,WEST ZONE,Zone Thermostat Heating Setpoint Temperature [C] !Hourly
316,1,WEST ZONE,Zone Thermostat Cooling Setpoint Temperature [C] !Hourly
349,1,EAST ZONE,Zone Air Temperature [C] !TimeStep
350,1,EAST ZONE,Zone Air Relative Humidity [%] !TimeStep
351,1,EAST ZONE,Zone Thermostat Control Type [] !Hourly
352,1,EAST ZONE,Zone Thermostat Heating Setpoint Temperature [C] !Hourly
353,1,EAST ZONE,Zone Thermostat Cooling Setpoint Temperature [C] !Hourly
386,1,WEST PLENUM,Zone Thermostat Control Type [] !Hourly
387,1,WEST PLENUM,Zone Thermostat Heating Setpoint Temperature [C] !Hourly
388,1,WEST PLENUM,Zone Thermostat Cooling Setpoint Temperature [C] !Hourly
421,1,EAST PLENUM,Zone Thermostat Control Type [] !Hourly
422,1,EAST PLENUM,Zone Thermostat Heating Setpoint Temperature [C] !Hourly
423,1,EAST PLENUM,Zone Thermostat Cooling Setpoint Temperature [C] !Hourly
517,1,Whole Building,Facility Total Building Electric Demand Power [W] !Hourly
518,1,Whole Building,Facility Total HVAC Electric Demand Power [W] !Hourly
519,1,Whole Building,Facility Total Electric Demand Power [W] !Hourly
520,1,WEST ZONE,Zone Oscillating Temperatures Time [hr] !Hourly
521,1,EAST ZONE,Zone Oscillating Temperatures Time [hr] !Hourly
522,1,WEST PLENUM,Zone Oscillating Temperatures Time [hr] !Hourly
523,1,EAST PLENUM,Zone Oscillating Temperatures Time [hr] !Hourly
524,1,Facility,Facility Any Zone Oscillating Temperatures Time [hr] !Hourly
525,1,WEST ZONE,Zone Heating Setpoint Not Met Time [hr] !Hourly
526,1,WEST ZONE,Zone Heating Setpoint Not Met While Occupied Time [hr] !Hourly
527,1,WEST ZONE,Zone Cooling Setpoint Not Met Time [hr] !Hourly
528,1,WEST ZONE,Zone Cooling Setpoint Not Met While Occupied Time [hr] !Hourly
529,1,EAST ZONE,Zone Heating Setpoint Not Met Time [hr] !Hourly
530,1,EAST ZONE,Zone Heating Setpoint Not Met While Occupied Time [hr] !Hourly
531,1,EAST ZONE,Zone Cooling Setpoint Not Met Time [hr] !Hourly
532,1,EAST ZONE,Zone Cooling Setpoint Not Met While Occupied Time [hr] !Hourly
533,1,WEST PLENUM,Zone Heating Setpoint Not Met Time [hr] !Hourly
534,1,WEST PLENUM,Zone Heating Setpoint Not Met While Occupied Time [hr] !Hourly
535,1,WEST PLENUM,Zone Cooling Setpoint Not Met Time [hr] !Hourly
536,1,WEST PLENUM,Zone Cooling Setpoint Not Met While Occupied Time [hr] !Hourly
537,1,EAST PLENUM,Zone Heating Setpoint Not Met Time [hr] !Hourly
538,1,EAST PLENUM,Zone Heating Setpoint Not Met While Occupied Time [hr] !Hourly
539,1,EAST PLENUM,Zone Cooling Setpoint Not Met Time [hr] !Hourly
540,1,EAST PLENUM,Zone Cooling Setpoint Not Met While Occupied Time [hr] !Hourly
541,1,WEST ZONE VAV SYSTEM,Zone Air Terminal VAV Damper Position [] !Hourly
542,1,WEST ZONE VAV SYSTEM,Zone Air Terminal Minimum Air Flow Fraction [] !Hourly
543,1,WEST ZONE VAV SYSTEM,Zone Air Terminal Outdoor Air Volume Flow Rate [m3/s] !Hourly
544,1,EAST ZONE VAV SYSTEM,Zone Air Terminal VAV Damper Position [] !Hourly
545,1,EAST ZONE VAV SYSTEM,Zone Air Terminal Minimum Air Flow Fraction [] !Hourly
546,1,EAST ZONE VAV SYSTEM,Zone Air Terminal Outdoor Air Volume Flow Rate [m3/s] !Hourly
599,1,WEST ZONE CW COOLING COIL,Cooling Coil Total Cooling Rate [W] !TimeStep
600,1,WEST ZONE CW COOLING COIL,Cooling Coil Sensible Cooling Rate [W] !TimeStep
603,1,EAST ZONE CW COOLING COIL,Cooling Coil Total Cooling Rate [W] !TimeStep
604,1,EAST ZONE CW COOLING COIL,Cooling Coil Sensible Cooling Rate [W] !TimeStep
605,1,WEST ZONE SUPPLY FAN,Fan Electric Power [W] !Hourly
606,1,WEST ZONE SUPPLY FAN,Fan Rise in Air Temperature [deltaC] !Hourly
607,1,WEST ZONE SUPPLY FAN,Fan Heat Gain to Air [W] !Hourly
608,1,WEST ZONE SUPPLY FAN,Fan Electric Energy [J] !Hourly
639,1,WEST ZONE SUPPLY FAN,Fan Air Mass Flow Rate [kg/s] !Hourly
640,1,EAST ZONE SUPPLY FAN,Fan Electric Power [W] !Hourly
641,1,EAST ZONE SUPPLY FAN,Fan Rise in Air Temperature [deltaC] !Hourly
642,1,EAST ZONE SUPPLY FAN,Fan Heat Gain to Air [W] !Hourly
643,1,EAST ZONE SUPPLY FAN,Fan Electric Energy [J] !Hourly
644,1,EAST ZONE SUPPLY FAN,Fan Air Mass Flow Rate [kg/s] !Hourly
645,1,WEST DATA CENTER IEC,Evaporative Cooler Total Stage Effectiveness [] !TimeStep
646,1,WEST DATA CENTER IEC,Evaporative Cooler Operating Mode Status [] !TimeStep
647,1,EAST DATA CENTER IEC,Evaporative Cooler Total Stage Effectiveness [] !TimeStep
648,1,EAST DATA CENTER IEC,Evaporative Cooler Operating Mode Status [] !TimeStep
649,1,WEST DATA CENTER DEC,Evaporative Cooler Stage Effectiveness [] !TimeStep
650,1,EAST DATA CENTER DEC,Evaporative Cooler Stage Effectiveness [] !TimeStep
662,1,WEST DATA CENTER IEC,Evaporative Cooler Electric Power [W] !TimeStep
663,1,WEST DATA CENTER IEC,Evaporative Cooler Water Volume [m3] !TimeStep
726,1,EAST DATA CENTER IEC,Evaporative Cooler Electric Power [W] !TimeStep
727,1,EAST DATA CENTER IEC,Evaporative Cooler Water Volume [m3] !TimeStep
730,1,WEST DATA CENTER DEC,Evaporative Cooler Electric Power [W] !TimeStep
731,1,WEST DATA CENTER DEC,Evaporative Cooler Water Volume [m3] !TimeStep
734,1,EAST DATA CENTER DEC,Evaporative Cooler Electric Power [W] !TimeStep
735,1,EAST DATA CENTER DEC,Evaporative Cooler Water Volume [m3] !TimeStep
737,1,WEST DX COOLING COIL,Cooling Coil Total Cooling Rate [W] !TimeStep
739,1,WEST DX COOLING COIL,Cooling Coil Sensible Cooling Rate [W] !TimeStep
741,1,EAST DX COOLING COIL,Cooling Coil Total Cooling Rate [W] !TimeStep
743,1,EAST DX COOLING COIL,Cooling Coil Sensible Cooling Rate [W] !TimeStep
766,1,CHILLER,Chiller Evaporator Cooling Rate [W] !Hourly
788,1,CHILLER,Chiller Evaporator Inlet Temperature [C] !Hourly
789,1,CHILLER,Chiller Evaporator Outlet Temperature [C] !Hourly
790,1,CHILLER,Chiller Condenser Heat Transfer Rate [W] !Hourly
802,1,CHILLER,Chiller Condenser Inlet Temperature [C] !Hourly
803,1,CHILLER,Chiller Condenser Outlet Temperature [C] !Hourly
892,1,WEST ZONE INLET NODE,System Node Temperature [C] !TimeStep
893,1,WEST ZONE INLET NODE,System Node Mass Flow Rate [kg/s] !TimeStep
894,1,WEST OUTSIDE AIR INLET NODE,System Node Temperature [C] !TimeStep
895,1,WEST OUTSIDE AIR INLET NODE,System Node Mass Flow Rate [kg/s] !TimeStep
896,1,WEST IEC SECONDARY AIR INLET NODE,System Node Temperature [C] !TimeStep
897,1,WEST IEC SECONDARY AIR INLET NODE,System Node Mass Flow Rate [kg/s] !TimeStep
898,1,WEST ZONE DEC OUTLET NODE,System Node Temperature [C] !TimeStep
899,1,WEST ZONE DEC OUTLET NODE,System Node Setpoint Temperature [C] !TimeStep
900,1,WEST ZONE IEC OUTLET NODE,System Node Temperature [C] !TimeStep
901,1,WEST ZONE IEC OUTLET NODE,System Node Setpoint Temperature [C] !TimeStep
902,1,WEST ZONE CCOIL AIR OUTLET NODE,System Node Temperature [C] !TimeStep
903,1,WEST ZONE CCOIL AIR OUTLET NODE,System Node Setpoint Temperature [C] !TimeStep
904,1,WEST AIR LOOP OUTLET NODE,System Node Temperature [C] !TimeStep
905,1,WEST AIR LOOP OUTLET NODE,System Node Setpoint Temperature [C] !TimeStep
906,1,EAST ZONE INLET NODE,System Node Temperature [C] !TimeStep
907,1,EAST ZONE INLET NODE,System Node Mass Flow Rate [kg/s] !TimeStep
908,1,EAST OUTSIDE AIR INLET NODE,System Node Temperature [C] !TimeStep
909,1,EAST OUTSIDE AIR INLET NODE,System Node Mass Flow Rate [kg/s] !TimeStep
910,1,EAST IEC SECONDARY AIR INLET NODE,System Node Temperature [C] !TimeStep
911,1,EAST IEC SECONDARY AIR INLET NODE,System Node Mass Flow Rate [kg/s] !TimeStep
912,1,EAST ZONE DEC OUTLET NODE,System Node Temperature [C] !TimeStep
913,1,EAST ZONE DEC OUTLET NODE,System Node Setpoint Temperature [C] !TimeStep
914,1,EAST ZONE IEC OUTLET NODE,System Node Temperature [C] !TimeStep
915,1,EAST ZONE IEC OUTLET NODE,System Node Setpoint Temperature [C] !TimeStep
916,1,EAST ZONE CCOIL AIR OUTLET NODE,System Node Temperature [C] !TimeStep
917,1,EAST ZONE CCOIL AIR OUTLET NODE,System Node Setpoint Temperature [C] !TimeStep
918,1,EAST AIR LOOP OUTLET NODE,System Node Temperature [C] !TimeStep
919,1,EAST AIR LOOP OUTLET NODE,System Node Setpoint Temperature [C] !TimeStep
920,1,WEST ZONE RETURN AIR NODE,System Node Temperature [C] !TimeStep
921,1,WEST ZONE RETURN AIR NODE,System Node Mass Flow Rate [kg/s] !TimeStep
922,1,WEST ZONE MIXED AIR NODE,System Node Temperature [C] !TimeStep
923,1,WEST ZONE MIXED AIR NODE,System Node Mass Flow Rate [kg/s] !TimeStep
924,1,WEST ZONE SUPPLY FAN OUTLET NODE,System Node Temperature [C] !TimeStep
925,1,EAST ZONE SUPPLY FAN OUTLET NODE,System Node Temperature [C] !TimeStep
926,1,WEST IEC SECONDARY AIR OUTLET NODE,System Node Temperature [C] !TimeStep
927,1,WEST IEC SECONDARY AIR OUTLET NODE,System Node Mass Flow Rate [kg/s] !TimeStep
End of Data Dictionary
1,WHOLEYEARDAY,  37.62,-122.40,  -8.00,   2.00
2,1, 1, 1, 0, 1, 0.00,15.00,Tuesday
6,6.825
239,1.0300298866314462
312,20.558016987895173
313,35.73110995044891
349,22.0070673625182
350,32.66904692427303
599,0.0
600,0.0
603,0.0
604,0.0
645,0.12838703820837639
647,0.031514141426293659
649,0.2692307692307691
650,0.6461538461538459
662,17.77140523227329
663,0.0
726,6.90086755151453
727,0.0
730,4.615384615384614
731,0.002216507234670406
734,2.3076923076923085
735,0.001980108459376585
737,0.0
739,0.0
741,0.0
743,0.0
892,12.856985291236235
893,3.2088446923076918
894,6.8249999999999979
895,1.5872273118190297
896,6.8249999999999979
897,0.6805603718698716
898,13.099980800168993
899,16.635205153846149
900,12.315356628637519
901,16.635205153846149
902,12.315356628637519
903,16.635205153846149
904,12.315356628637519
905,16.635205153846149
906,19.080045312547843
907,6.178018087679598
908,6.8249999999999979
909,0.3526704381799323
910,6.8249999999999979
911,0.2587622086164403
912,20.80963025616084
913,34.04101946153846
914,20.547002195949536
915,34.04101946153846
916,20.547002195949536
917,34.04101946153846
918,20.547002195949536
919,34.04101946153846
920,20.84779242044535
921,3.2088446923076918
922,13.564612634418733
923,3.2088446923076918
924,13.940454829972197
925,21.324355038395067
926,8.269941427626373
927,0.6805603718698716
646,0.30769230769230768
648,0.07692307692307694
2,1, 1, 1, 0, 1,15.00,30.00,Tuesday
6,6.95
239,1.0781604152463358
312,22.194721333863265
313,33.36126064765018
349,29.802000722482558
350,22.74491708093652
599,0.0
600,0.0
603,0.0
604,0.0
645,0.21712112038098309
647,0.03749488330882144
649,0.13999999999999999
650,0.6533333333333331
662,11.472099407795883
663,0.0
726,11.415850589394627
727,0.0
730,6.0
731,0.0011547552540693922
734,2.827073942061181
735,0.0032302423863983366
737,0.0
739,0.0
741,0.0
743,0.0
892,11.852576609473387
893,2.2002191333333345
894,6.949999999999998
895,1.3933169107664379
896,6.949999999999998
897,0.6859592373415868
898,11.712354997340455
899,13.271647866666666
900,10.184883425340127
901,13.271647866666666
902,10.184883425340127
903,13.271647866666666
904,10.184883425340127
905,13.271647866666666
906,23.981086858047257
907,5.784369111652899
908,6.949999999999998
909,0.32766685671541387
910,6.949999999999998
911,0.2873968074357867
912,26.80924921031103
913,35.515084266666679
914,26.32272992509084
915,35.515084266666679
916,26.32272992509084
917,35.515084266666679
918,26.32272992509084
919,35.515084266666679
920,22.057669044937496
921,2.2002191333333345
922,12.381540024928793
923,2.2002191333333345
924,12.81512699592048
925,27.732317745921948
926,9.469564603246225
927,0.6859592373415868
646,0.46666666666666675
648,0.06666666666666667
2,1, 1, 1, 0, 1,30.00,45.00,Tuesday
6,7.075
239,1.037866511985082
312,20.75977703860931
313,40.2290440233538
349,40.06082199918862
350,15.056126142838537
599,0.0
600,0.0
603,18.55559563082204
604,18.555595630825829
645,0.18460617798645199
647,0.062328582992599388
649,0.2333333333333333
650,0.41999999999999995
662,34.76570568988817
663,0.0
726,15.813938475346824
727,0.0
730,8.0
731,0.0026527849954452807
734,3.586104030444922
735,0.003267032661204788
737,0.0
739,0.0
741,0.0
743,0.0
892,13.52981452999785
893,2.6104589561722566
894,7.075
895,1.2159944574284439
896,7.075
897,0.7443888500307559
898,12.792626653626032
899,16.935867066666665
900,11.284240288258302
901,16.935867066666665
902,11.284240288258302
903,16.935867066666665
904,11.284240288258302
905,16.935867066666665
906,29.05285120460289
907,5.76330694731681
908,7.075
909,0.8321123121002386
910,7.075
911,0.3846186142085737
912,33.754519970013898
913,36.09377333333334
914,32.17406940609364
915,36.09377333333334
916,32.17406940609364
917,36.09377333333334
918,32.171306785249367
919,36.09377333333334
920,20.891651111596479
921,2.6104589561722566
922,13.973081042997763
923,2.6104589561722566
924,14.380399101866568
925,35.332666316814208
926,9.174872263319167
927,0.7443888500307559
646,0.3333333333333333
648,0.26666666666666669
2,1, 1, 1, 0, 1,45.00,60.00,Tuesday
6,7.2
239,1.0264482832978182
312,19.937929137533517
313,45.29469098981332
349,41.09647790265677
350,14.176741320845862
599,0.0
600,0.0
603,39.61931964830711
604,39.61931964831269
645,0.2200750259319817
647,0.04322179066534661
649,0.18666666666666666
650,0.18666666666666666
662,37.802373653454569
663,0.0
726,2.8174473583144028
727,0.0
730,6.0
731,0.0023521563854202955
734,0.14568391495860537
735,0.0001176802621726106
737,0.0
739,0.0
741,0.0
743,0.0
892,12.788792344075639
893,2.7236166895055899
894,7.200000000000003
895,1.3380651077148503
896,7.200000000000003
897,0.9570574697913036
898,12.22646129826579
899,14.052976066666665
900,10.722567409930108
901,14.052976066666665
902,10.722567409930108
903,14.052976066666665
904,10.722567409930108
905,14.052976066666665
906,33.74989998743131
907,6.361584316314056
908,7.200000000000003
909,0.5695871954111385
910,7.200000000000003
911,0.3021191634286264
912,38.161070157646509
913,38.2165178
914,36.78976704130021
915,38.2165178
916,36.78976704130021
917,38.2165178
918,36.784163183492548
919,38.2165178
920,19.92405262305918
921,2.7236166895055899
922,12.865544288640383
923,2.7236166895055899
924,13.24492891201234
925,38.2157219401077
926,9.561686490660298
927,0.9570574697913036
646,0.4666666666666666
648,0.2
2,1, 1, 1, 0, 1, 0.00,60.00,Tuesday
133,11504.97378576316
134,7787.580227871775
135,1929.255401363493
136,13936.849545599995
137,10219.334400000002
138,1929.255401363493
139,21221.809414998428
173,2.857339457751843
174,13.691240796787583
175,5.042858916642979
176,0.5604824542336153
177,21.7653444544253
178,0.0928598722451312
179,1.0
180,0.0
181,0.0
182,0.0
183,0.0
184,0.0
185,1.0
186,0.0
187,0.0
188,0.0
189,0.0
190,0.0
191,-19.439517545766387
192,11504.97378576316
193,7787.580227871775
194,1929.255401363493
195,13936.849545599995
196,10219.334400000002
197,1929.255401363493
198,21221.809414998428
199,32336.605628724683
200,28188.931678140783
201,6052.553730686546
202,15546.354479999996
203,11399.520000000002
204,6052.553730686546
205,66578.09103755202
209,9.914695299253192
210,23.1004958305064
211,5.879182611422228
212,0.34626605606468688
213,30.511726945134563
214,0.09797378828084266
215,1.0
216,0.0
217,0.0
218,0.0
219,0.0
220,0.0
221,1.0
222,0.0
223,0.0
224,0.0
225,0.0
226,0.0
227,-19.653733943935316
228,32336.605628724683
229,28188.931678140783
230,6052.553730686546
231,15546.354479999996
232,11399.520000000002
233,6052.553730686546
234,66578.09103755202
315,20.0
316,23.0
352,20.0
353,23.0
387,0.0
388,0.0
422,0.0
423,0.0
525,0.0
526,0.0
527,0.0
528,0.0
529,0.0
530,0.0
531,0.75
532,0.0
533,0.0
534,0.0
535,0.0
536,0.0
537,0.0
538,0.0
539,0.0
540,0.0
314,4.0
351,4.0
386,0.0
421,0.0
517,87828.30045255041
518,3706.215700092414
519,91534.51615264286
520,0.019230769230769233
521,0.016666666666666668
522,0.038461538461538467
523,0.03333333333333333
524,0.09102564102564102
541,0.4305452445114101
542,0.4
543,1.1491896157612492
544,0.8616118713727482
545,0.4
546,0.4323082852404937
605,1100.6359185955398
606,0.3990329621964782
607,990.5723267359857
608,3962289.3069439439
639,2.6857848678297184
640,2039.7507259159556
641,0.30225622561430467
642,1835.7756533243603
643,7343102.61329744
644,6.02181961574084
766,2.8430235585241125
788,10.205253739557327
789,9.884551366647859
790,3.254743198137522
802,9.941354995202709
803,9.941384650289474
2,1, 1, 1, 0, 2, 0.00,15.00,Tuesday
6,7.2
239,1.0844906151275982
312,19.813888521635538
313,45.39243580323881
349,45.91396523771018
350,11.190458394039777
599,0.0
600,0.0
603,14.983622792261994
604,14.983622792264182
645,0.19377140485985376
647,0.05991982329990954
649,0.2333333333333333
650,0.2333333333333333
662,34.95782523401173
663,0.0
726,3.932927931341661
727,0.0
730,6.0
731,0.002270711675657384
734,1.9452416616245659
735,0.0026644730271118846
737,0.0
739,0.0
741,0.0
743,0.0
892,13.2234473824509
893,2.8494892
894,7.200000000000003
895,1.3574364702794766
896,7.200000000000003
897,0.8589545106328614
898,13.02787733404196
899,17.7728164
900,11.621166449283582
901,17.7728164
902,11.621166449283582
903,17.7728164
904,11.621166449283582
905,17.7728164
906,31.699998569232848
907,6.5072207566391289
908,7.200000000000003
909,1.6180289805538997
910,7.200000000000003
911,0.30307287367412136
912,35.52451563593549
913,36.211995933333337
914,33.73783731721981
915,36.211995933333337
916,33.73783731721981
917,36.211995933333337
918,33.735719612182567
919,36.211995933333337
920,19.67909815427431
921,2.8494892
922,13.631572406161555
923,2.8494892
924,14.015965069844122
925,36.212022118206977
926,9.305773876302724
927,0.8589545106328614
646,0.39999999999999999
648,0.2
2,1, 1, 1, 0, 2,15.00,30.00,Tuesday
6,7.2
239,1.0557699743875398
312,24.708454358837718
313,34.74684151155523
349,48.171593829019609
350,9.798226397102438
599,0.0
600,0.0
603,627.1620979233368
604,78.81275928479195
645,0.1633457638116925
647,0.09569858255768425
649,0.27999999999999999
650,0.3733333333333333
662,97.8268863444282
663,0.0
726,114.424218372598
727,0.0
730,9.363379337502389
731,0.001760257755049174
734,2.953887670346859
735,0.0019801566555859636
737,634.776792514037
739,46.21193839298588
741,0.0
743,0.0
892,14.371464167618182
893,2.1188226
894,7.200000000000003
895,1.132224746955856
896,7.200000000000003
897,0.8680035817064151
898,13.214013192605484
899,15.896523933333335
900,11.906962092129925
901,15.896523933333335
902,11.881047970600097
903,15.896523933333335
904,11.881047970600097
905,15.896523933333335
906,31.747646359810916
907,6.109288587641882
908,7.200000000000003
909,1.686741826205988
910,7.200000000000003
911,0.9852888928652394
912,34.82900519546463
913,35.847542
914,32.96429326337221
915,35.847542
916,32.96429326337221
917,35.847542