Program Version,EnergyPlus, Version 8.8.0-Unknown, YMD=2019.07.16 14:14
1,5,Environment Title[],Latitude[deg],Longitude[deg],Time Zone[],Elevation[m]
2,6,Day of Simulation[],Month[],Day of Month[],DST Indicator[1=yes 0=no],Hour[],StartMinute[],EndMinute[],DayType
3,3,Cumulative Day of Simulation[],Month[],Day of Month[],DST Indicator[1=yes 0=no],DayType  ! When Daily Report Variables Requested
4,2,Cumulative Days of Simulation[],Month[]  ! When Monthly Report Variables Requested
5,1,Cumulative Days of Simulation[] ! When Run Period Report Variables Requested
6,1,Environment,Site Outdoor Air Drybulb Temperature [C] !TimeStep
133,1,WESTDATACENTER_EQUIP,ITE CPU Electric Power [W] !Hourly
134,1,WESTDATACENTER_EQUIP,ITE Fan Electric Power [W] !Hourly
135,1,WESTDATACENTER_EQUIP,ITE UPS Electric Power [W] !Hourly
136,1,WESTDATACENTER_EQUIP,ITE CPU Electric Power at Design Inlet Conditions [W] !Hourly
137,1,WESTDATACENTER_EQUIP,ITE Fan Electric Power at Design Inlet Conditions [W] !Hourly
138,1,WESTDATACENTER_EQUIP,ITE UPS Heat Gain to Zone Rate [W] !Hourly
139,1,WESTDATACENTER_EQUIP,ITE Total Heat Gain to Zone Rate [W] !Hourly
173,1,WESTDATACENTER_EQUIP,ITE Standard Density Air Volume Flow Rate [m3/s] !Hourly
174,1,WESTDATACENTER_EQUIP,ITE Air Inlet Dry-Bulb Temperature [C] !Hourly
175,1,WESTDATACENTER_EQUIP,ITE Air Inlet Dewpoint Temperature [C] !Hourly
176,1,WESTDATACENTER_EQUIP,ITE Air Inlet Relative Humidity [%] !Hourly
177,1,WESTDATACENTER_EQUIP,ITE Air Outlet Dry-Bulb Temperature [C] !Hourly
178,1,WESTDATACENTER_EQUIP,ITE Supply Heat Index [] !Hourly
179,1,WESTDATACENTER_EQUIP,ITE Air Inlet Operating Range Exceeded Time [hr] !Hourly
180,1,WESTDATACENTER_EQUIP,ITE Air Inlet Dry-Bulb Temperature Above Operating Range Time [hr] !Hourly
181,1,WESTDATACENTER_EQUIP,ITE Air Inlet Dry-Bulb Temperature Below Operating Range Time [hr] !Hourly
182,1,WESTDATACENTER_EQUIP,ITE Air Inlet Dewpoint Temperature Above Operating Range Time [hr] !Hourly
183,1,WESTDATACENTER_EQUIP,ITE Air Inlet Dewpoint Temperature Below Operating Range Time [hr] !Hourly
184,1,WESTDATACENTER_EQUIP,ITE Air Inlet Relative Humidity Above Operating Range Time [hr] !Hourly
185,1,WESTDATACENTER_EQUIP,ITE Air Inlet Relative Humidity Below Operating Range Time [hr] !Hourly
186,1,WESTDATACENTER_EQUIP,ITE Air Inlet Dry-Bulb Temperature Difference Above Operating Range [deltaC] !Hourly
187,1,WESTDATACENTER_EQUIP,ITE Air Inlet Dry-Bulb Temperature Difference Below Operating Range [deltaC] !Hourly
188,1,WESTDATACENTER_EQUIP,ITE Air Inlet Dewpoint Temperature Difference Above Operating Range [deltaC] !Hourly
189,1,WESTDATACENTER_EQUIP,ITE Air Inlet Dewpoint Temperature Difference Below Operating Range [deltaC] !Hourly
190,1,WESTDATACENTER_EQUIP,ITE Air Inlet Relative Humidity Difference Above Operating Range [%] !Hourly
191,1,WESTDATACENTER_EQUIP,ITE Air Inlet Relative Humidity Difference Below Operating Range [%] !Hourly
192,1,WEST ZONE,Zone ITE CPU Electric Power [W] !Hourly
193,1,WEST ZONE,Zone ITE Fan Electric Power [W] !Hourly
194,1,WEST ZONE,Zone ITE UPS Electric Power [W] !Hourly
195,1,WEST ZONE,Zone ITE CPU Electric Power at Design Inlet Conditions [W] !Hourly
196,1,WEST ZONE,Zone ITE Fan Electric Power at Design Inlet Conditions [W] !Hourly
197,1,WEST ZONE,Zone ITE UPS Heat Gain to Zone Rate [W] !Hourly
198,1,WEST ZONE,Zone ITE Total Heat Gain to Zone Rate [W] !Hourly
199,1,EASTDATACENTER_EQUIP,ITE CPU Electric Power [W] !Hourly
200,1,EASTDATACENTER_EQUIP,ITE Fan Electric Power [W] !Hourly
201,1,EASTDATACENTER_EQUIP,ITE UPS Electric Power [W] !Hourly
202,1,EASTDATACENTER_EQUIP,ITE CPU Electric Power at Design Inlet Conditions [W] !Hourly
203,1,EASTDATACENTER_EQUIP,ITE Fan Electric Power at Design Inlet Conditions [W] !Hourly
204,1,EASTDATACENTER_EQUIP,ITE UPS Heat Gain to Zone Rate [W] !Hourly
205,1,EASTDATACENTER_EQUIP,ITE Total Heat Gain to Zone Rate [W] !Hourly
209,1,EASTDATACENTER_EQUIP,ITE Standard Density Air Volume Flow Rate [m3/s] !Hourly
210,1,EASTDATACENTER_EQUIP,ITE Air Inlet Dry-Bulb Temperature [C] !Hourly
211,1,EASTDATACENTER_EQUIP,ITE Air Inlet Dewpoint Temperature [C] !Hourly
212,1,EASTDATACENTER_EQUIP,ITE Air Inlet Relative Humidity [%] !Hourly
213,1,EASTDATACENTER_EQUIP,ITE Air Outlet Dry-Bulb Temperature [C] !Hourly
214,1,EASTDATACENTER_EQUIP,ITE Supply Heat Index [] !Hourly
215,1,EASTDATACENTER_EQUIP,ITE Air Inlet Operating Range Exceeded Time [hr] !Hourly
216,1,EASTDATACENTER_EQUIP,ITE Air Inlet Dry-Bulb Temperature Above Operating Range Time [hr] !Hourly
217,1,EASTDATACENTER_EQUIP,ITE Air Inlet Dry-Bulb Temperature Below Operating Range Time [hr] !Hourly
218,1,EASTDATACENTER_EQUIP,ITE Air Inlet Dewpoint Temperature Above Operating Range Time [hr] !Hourly
219,1,EASTDATACENTER_EQUIP,ITE Air Inlet Dewpoint Temperature Below Operating Range Time [hr] !Hourly
220,1,EASTDATACENTER_EQUIP,ITE Air Inlet Relative Humidity Above Operating Range Time [hr] !Hourly
221,1,EASTDATACENTER_EQUIP,ITE Air Inlet Relative Humidity Below Operating Range Time [hr] !Hourly
222,1,EASTDATACENTER_EQUIP,ITE Air Inlet Dry-Bulb Temperature Difference Above Operating Range [deltaC] !Hourly
223,1,EASTDATACENTER_EQUIP,ITE Air Inlet Dry-Bulb Temperature Difference Below Operating Range [deltaC] !Hourly
224,1,EASTDATACENTER_EQUIP,ITE Air Inlet Dewpoint Temperature Difference Above Operating Range [deltaC] !Hourly
225,1,EASTDATACENTER_EQUIP,ITE Air Inlet Dewpoint Temperature Difference Below Operating Range [deltaC] !Hourly
226,1,EASTDATACENTER_EQUIP,ITE Air Inlet Relative Humidity Difference Above Operating Range [%] !Hourly
227,1,EASTDATACENTER_EQUIP,ITE Air Inlet Relative Humidity Difference Below Operating Range [%] !Hourly
228,1,EAST ZONE,Zone ITE CPU Electric Power [W] !Hourly
229,1,EAST ZONE,Zone ITE Fan Electric Power [W] !Hourly
230,1,EAST ZONE,Zone ITE UPS Electric Power [W] !Hourly
231,1,EAST ZONE,Zone ITE CPU Electric Power at Design Inlet Conditions [W] !Hourly
232,1,EAST ZONE,Zone ITE Fan Electric Power at Design Inlet Conditions [W] !Hourly
233,1,EAST ZONE,Zone ITE UPS Heat Gain to Zone Rate [W] !Hourly
234,1,EAST ZONE,Zone ITE Total Heat Gain to Zone Rate [W] !Hourly
239,1,EMS,Power Utilization Effectiveness [] !TimeStep
312,1,WEST ZONE,Zone Air Temperature [C] !TimeStep
313,1,WEST ZONE,Zone Air Relative Humidity [%] !TimeStep
314,1,WEST ZONE,Zone Thermostat Control Type [] !Hourly
315,1,WEST ZONE,Zone Thermostat Heating Setpoint Temperature [C] !Hourly
316,1,WEST ZONE,Zone Thermostat Cooling Setpoint Temperature [C] !Hourly
349,1,EAST ZONE,Zone Air Temperature [C] !TimeStep
350,1,EAST ZONE,Zone Air Relative Humidity [%] !TimeStep
351,1,EAST ZONE,Zone Thermostat Control Type [] !Hourly
352,1,EAST ZONE,Zone Thermostat Heating Setpoint Temperature [C] !Hourly
353,1,EAST ZONE,Zone Thermostat Cooling Setpoint Temperature [C] !Hourly
386,1,WEST PLENUM,Zone Thermostat Control Type [] !Hourly
387,1,WEST PLENUM,Zone Thermostat Heating Setpoint Temperature [C] !Hourly
388,1,WEST PLENUM,Zone Thermostat Cooling Setpoint Temperature [C] !Hourly
421,1,EAST PLENUM,Zone Thermostat Control Type [] !Hourly
422,1,EAST PLENUM,Zone Thermostat Heating Setpoint Temperature [C] !Hourly
423,1,EAST PLENUM,Zone Thermostat Cooling Setpoint Temperature [C] !Hourly
517,1,Whole Building,Facility Total Building Electric Demand Power [W] !Hourly
518,1,Whole Building,Facility Total HVAC Electric Demand Power [W] !Hourly
519,1,Whole Building,Facility Total Electric Demand Power [W] !Hourly
520,1,WEST ZONE,Zone Oscillating Temperatures Time [hr] !Hourly
521,1,EAST ZONE,Zone Oscillating Temperatures Time [hr] !Hourly
522,1,WEST PLENUM,Zone Oscillating Temperatures Time [hr] !Hourly
523,1,EAST PLENUM,Zone Oscillating Temperatures Time [hr] !Hourly
524,1,Facility,Facility Any Zone Oscillating Temperatures Time [hr] !Hourly
525,1,WEST ZONE,Zone Heating Setpoint Not Met Time [hr] !Hourly
526,1,WEST ZONE,Zone Heating Setpoint Not Met While Occupied Time [hr] !Hourly
527,1,WEST ZONE,Zone Cooling Setpoint Not Met Time [hr] !Hourly
528,1,WEST ZONE,Zone Cooling Setpoint Not Met While Occupied Time [hr] !Hourly
529,1,EAST ZONE,Zone Heating Setpoint Not Met Time [hr] !Hourly
530,1,EAST ZONE,Zone Heating Setpoint Not Met While Occupied Time [hr] !Hourly
531,1,EAST ZONE,Zone Cooling Setpoint Not Met Time [hr] !Hourly
532,1,EAST ZONE,Zone Cooling Setpoint Not Met While Occupied Time [hr] !Hourly
533,1,WEST PLENUM,Zone Heating Setpoint Not Met Time [hr] !Hourly
534,1,WEST PLENUM,Zone Heating Setpoint Not Met While Occupied Time [hr] !Hourly
535,1,WEST PLENUM,Zone Cooling Setpoint Not Met Time [hr] !Hourly
536,1,WEST PLENUM,Zone Cooling Setpoint Not Met While Occupied Time [hr] !Hourly
537,1,EAST PLENUM,Zone Heating Setpoint Not Met Time [hr] !Hourly
538,1,EAST PLENUM,Zone Heating Setpoint Not Met While Occupied Time [hr] !Hourly
539,1,EAST PLENUM,Zone Cooling Setpoint Not Met Time [hr] !Hourly
540,1,EAST PLENUM,Zone Cooling Setpoint Not Met While Occupied Time [hr] !Hourly
541,1,WEST ZONE VAV SYSTEM,Zone Air Terminal VAV Damper Position [] !Hourly
542,1,WEST ZONE VAV SYSTEM,Zone Air Terminal Minimum Air Flow Fraction [] !Hourly
543,1,WEST ZONE VAV SYSTEM,Zone Air Terminal Outdoor Air Volume Flow Rate [m3/s] !Hourly
544,1,EAST ZONE VAV SYSTEM,Zone Air Terminal VAV Damper Position [] !Hourly
545,1,EAST ZONE VAV SYSTEM,Zone Air Terminal Minimum Air Flow Fraction [] !Hourly
546,1,EAST ZONE VAV SYSTEM,Zone Air Terminal Outdoor Air Volume Flow Rate [m3/s] !Hourly
599,1,WEST ZONE CW COOLING COIL,Cooling Coil Total Cooling Rate [W] !TimeStep
600,1,WEST ZONE CW COOLING COIL,Cooling Coil Sensible Cooling Rate [W] !TimeStep
603,1,EAST ZONE CW COOLING COIL,Cooling Coil Total Cooling Rate [W] !TimeStep
604,1,EAST ZONE CW COOLING COIL,Cooling Coil Sensible Cooling Rate [W] !TimeStep
605,1,WEST ZONE SUPPLY FAN,Fan Electric Power [W] !Hourly
606,1,WEST ZONE SUPPLY FAN,Fan Rise in Air Temperature [deltaC] !Hourly
607,1,WEST ZONE SUPPLY FAN,Fan Heat Gain to Air [W] !Hourly
608,1,WEST ZONE SUPPLY FAN,Fan Electric Energy [J] !Hourly
639,1,WEST ZONE SUPPLY FAN,Fan Air Mass Flow Rate [kg/s] !Hourly
640,1,EAST ZONE SUPPLY FAN,Fan Electric Power [W] !Hourly
641,1,EAST ZONE SUPPLY FAN,Fan Rise in Air Temperature [deltaC] !Hourly
642,1,EAST ZONE SUPPLY FAN,Fan Heat Gain to Air [W] !Hourly
643,1,EAST ZONE SUPPLY FAN,Fan Electric Energy [J] !Hourly
644,1,EAST ZONE SUPPLY FAN,Fan Air Mass Flow Rate [kg/s] !Hourly
645,1,WEST DATA CENTER IEC,Evaporative Cooler Total Stage Effectiveness [] !TimeStep
646,1,WEST DATA CENTER IEC,Evaporative Cooler Operating Mode Status [] !TimeStep
647,1,EAST DATA CENTER IEC,Evaporative Cooler Total Stage Effectiveness [] !TimeStep
648,1,EAST DATA CENTER IEC,Evaporative Cooler Operating Mode Status [] !TimeStep
649,1,WEST DATA CENTER DEC,Evaporative Cooler Stage Effectiveness [] !TimeStep
650,1,EAST DATA CENTER DEC,Evaporative Cooler Stage Effectiveness [] !TimeStep
662,1,WEST DATA CENTER IEC,Evaporative Cooler Electric Power [W] !TimeStep
663,1,WEST DATA CENTER IEC,Evaporative Cooler Water Volume [m3] !TimeStep
726,1,EAST DATA CENTER IEC,Evaporative Cooler Electric Power [W] !TimeStep
727,1,EAST DATA CENTER IEC,Evaporative Cooler Water Volume [m3] !TimeStep
730,1,WEST DATA CENTER DEC,Evaporative Cooler Electric Power [W] !TimeStep
731,1,WEST DATA CENTER DEC,Evaporative Cooler Water Volume [m3] !TimeStep
734,1,EAST DATA CENTER DEC,Evaporative Cooler Electric Power [W] !TimeStep
735,1,EAST DATA CENTER DEC,Evaporative Cooler Water Volume [m3] !TimeStep
737,1,WEST DX COOLING COIL,Cooling Coil Total Cooling Rate [W] !TimeStep
739,1,WEST DX COOLING COIL,Cooling Coil Sensible Cooling Rate [W] !TimeStep
741,1,EAST DX COOLING COIL,Cooling Coil Total Cooling Rate [W] !TimeStep
743,1,EAST DX COOLING COIL,Cooling Coil Sensible Cooling Rate [W] !TimeStep
766,1,CHILLER,Chiller Evaporator Cooling Rate [W] !Hourly
788,1,CHILLER,Chiller Evaporator Inlet Temperature [C] !Hourly
789,1,CHILLER,Chiller Evaporator Outlet Temperature [C] !Hourly
790,1,CHILLER,Chiller Condenser Heat Transfer Rate [W] !Hourly
802,1,CHILLER,Chiller Condenser Inlet Temperature [C] !Hourly
803,1,CHILLER,Chiller Condenser Outlet Temperature [C] !Hourly
892,1,WEST ZONE INLET NODE,System Node Temperature [C] !TimeStep
893,1,WEST ZONE INLET NODE,System Node Mass Flow Rate [kg/s] !TimeStep
894,1,WEST OUTSIDE AIR INLET NODE,System Node Temperature [C] !TimeStep
895,1,WEST OUTSIDE AIR INLET NODE,System Node Mass Flow Rate [kg/s] !TimeStep
896,1,WEST IEC SECONDARY AIR INLET NODE,System Node Temperature [C] !TimeStep
897,1,WEST IEC SECONDARY AIR INLET NODE,System Node Mass Flow Rate [kg/s] !TimeStep
898,1,WEST ZONE DEC OUTLET NODE,System Node Temperature [C] !TimeStep
899,1,WEST ZONE DEC OUTLET NODE,System Node Setpoint Temperature [C] !TimeStep
900,1,WEST ZONE IEC OUTLET NODE,System Node Temperature [C] !TimeStep
901,1,WEST ZONE IEC OUTLET NODE,System Node Setpoint Temperature [C] !TimeStep
902,1,WEST ZONE CCOIL AIR OUTLET NODE,System Node Temperature [C] !TimeStep
903,1,WEST ZONE CCOIL AIR OUTLET NODE,System Node Setpoint Temperature [C] !TimeStep
904,1,WEST AIR LOOP OUTLET NODE,System Node Temperature [C] !TimeStep
905,1,WEST AIR LOOP OUTLET NODE,System Node Setpoint Temperature [C] !TimeStep
906,1,EAST ZONE INLET NODE,System Node Temperature [C] !TimeStep
907,1,EAST ZONE INLET NODE,System Node Mass Flow Rate [kg/s] !TimeStep
908,1,EAST OUTSIDE AIR INLET NODE,System Node Temperature [C] !TimeStep
909,1,EAST OUTSIDE AIR INLET NODE,System Node Mass Flow Rate [kg/s] !TimeStep
910,1,EAST IEC SECONDARY AIR INLET NODE,System Node Temperature [C] !TimeStep
911,1,EAST IEC SECONDARY AIR INLET NODE,System Node Mass Flow Rate [kg/s] !TimeStep
912,1,EAST ZONE DEC OUTLET NODE,System Node Temperature [C] !TimeStep
913,1,EAST ZONE DEC OUTLET NODE,System Node Setpoint Temperature [C] !TimeStep
914,1,EAST ZONE IEC OUTLET NODE,System Node Temperature [C] !TimeStep
915,1,EAST ZONE IEC OUTLET NODE,System Node Setpoint Temperature [C] !TimeStep
916,1,EAST ZONE CCOIL AIR OUTLET NODE,System Node Temperature [C] !TimeStep
917,1,EAST ZONE CCOIL AIR OUTLET NODE,System Node Setpoint Temperature [C] !TimeStep
918,1,EAST AIR LOOP OUTLET NODE,System Node Temperature [C] !TimeStep
919,1,EAST AIR LOOP OUTLET NODE,System Node Setpoint Temperature [C] !TimeStep
920,1,WEST ZONE RETURN AIR NODE,System Node Temperature [C] !TimeStep
921,1,WEST ZONE RETURN AIR NODE,System Node Mass Flow Rate [kg/s] !TimeStep
922,1,WEST ZONE MIXED AIR NODE,System Node Temperature [C] !TimeStep
923,1,WEST ZONE MIXED AIR NODE,System Node Mass Flow Rate [kg/s] !TimeStep
924,1,WEST ZONE SUPPLY FAN OUTLET NODE,System Node Temperature [C] !TimeStep
925,1,EAST ZONE SUPPLY FAN OUTLET NODE,System Node Temperature [C] !TimeStep
926,1,WEST IEC SECONDARY AIR OUTLET NODE,System Node Temperature [C] !TimeStep
927,1,WEST IEC SECONDARY AIR OUTLET NODE,System Node Mass Flow Rate [kg/s] !TimeStep
End of Data Dictionary
1,WHOLEYEARDAY,  37.62,-122.40,  -8.00,   2.00
2,1, 1, 1, 0, 1, 0.00,15.00,Tuesday
6,6.825
239,1.0300298866314462
312,21.137534355462056
313,35.77542719376154
349,23.91449495732869
350,28.177190856492648
599,0.0
600,0.0
603,0.0
604,0.0
645,0.05262123225604064
647,0.02378371929059675
649,0.6066666666666665
650,0.6066666666666665
662,5.071462530985107
663,0.0
726,0.02077362383520821
727,0.0
730,5.581239882374637
731,0.0024182422770428499
734,4.0
735,0.0015196842055851855
737,0.0
739,0.0
741,0.0
743,0.0
892,17.381114512650279
893,4.389308224689025
894,6.825
895,0.7124699287029226
896,6.825
897,0.28442702280289658
898,18.27842322327345
899,28.59387813333333
900,17.906633291185537
901,28.59387813333333
902,17.906633291185537
903,28.59387813333333
904,17.906633291185537
905,28.59387813333333
906,19.536293263408547
907,3.4049561333333338
908,6.825
909,0.35427875834546498
910,6.825
911,0.046314240638984618
912,21.899239374167899
913,34.95383006666667
914,21.739617321742985
915,34.95383006666667
916,21.739617321742985
917,34.95383006666667
918,21.739617321742985
919,34.95383006666667
920,21.20050086073583
921,4.389308224689025
922,19.016899066255438
923,4.389308224689025
924,19.34405722895749
925,22.91448632911959
926,7.650431719061096
927,0.28442702280289658
646,0.13333333333333334
648,0.13333333333333334
2,1, 1, 1, 0, 1,15.00,30.00,Tuesday
6,6.95
239,1.051970783494692
312,27.995769807649876
313,26.656484434278995
349,31.18641039678014
350,21.361067940324138
599,0.0
600,0.0
603,0.0
604,0.0
645,0.09591148471449021
647,0.01933929346524278
649,0.5599999999999998
650,0.6999999999999997
662,193.42577348140936
663,0.0
726,0.08560722215311939
727,0.0
730,6.377343722150617
731,0.003951130201671236
734,4.229401702064588
735,0.003368946220785843
737,2939.3106989094326
739,257.9198120181595
741,0.0
743,0.0
892,18.10719131737559
893,3.789016491355693
894,6.9499999999999979
895,0.8283213953543633
896,6.9499999999999979
897,1.2192020119291674
898,21.309907849352308
899,28.154243800000005
900,20.11422456762712
901,28.154243800000005
902,20.054421816940399
903,28.154243800000005
904,20.054421816940399
905,28.154243800000005
906,24.97457694160651
907,4.387018671327826
908,6.9499999999999979
909,0.4544015975486342
910,6.9499999999999979
911,0.04668490921778081
912,27.36613862922556
913,34.581998133333339
914,27.076940757195066
915,34.581998133333339
916,27.076940757195066
917,34.581998133333339
918,27.076940757195066
919,34.581998133333339
920,27.36102141248514
921,3.789016491355693
922,22.735825964985545
923,3.789016491355693
924,23.083610802939675
925,28.83727201660752
926,7.5020387462199829
927,1.2192020119291674
646,0.13333333333333334
648,0.06666666666666667
2,1, 1, 1, 0, 1,30.00,45.00,Tuesday
6,7.075
239,1.037301674094539
312,36.032698220979558
313,17.845488376985125
349,31.92044309630352
350,26.045968340861188
599,0.0
600,0.0
603,0.0
604,0.0
645,0.13526217497750218
647,0.09129516379559653
649,0.41999999999999995
650,0.6533333333333331
662,14.39530718449548
663,0.0
726,4.845859729297175
727,0.0
730,4.0
731,0.0011049868091760804
734,9.411588167954563
735,0.00818841236179577
737,0.0
739,0.0
741,0.0
743,0.0
892,22.685327057279858
893,3.6727395790111796
894,7.075
895,1.275951144057145
896,7.075
897,0.5434984065278909
898,26.231620471394434
899,29.246369200000005
900,23.15246807978499
901,29.246369200000005
902,23.15246807978499
903,29.246369200000005
904,23.15246807978499
905,29.246369200000005
906,23.143827938917519
907,4.240379471327825
908,7.075
909,0.7353804976676378
910,7.075
911,0.39731367296651745
912,24.82689469751078
913,31.479898400000005
914,23.497155010029919
915,31.479898400000005
916,23.497155010029919
917,31.479898400000005
918,23.497155010029919
919,31.479898400000005
920,35.72385708043157
921,3.6727395790111796
922,26.898603010572086
923,3.6727395790111796
924,27.237609168606736
925,27.88972618621468
926,14.987334443438975
927,0.5434984065278909
646,0.39999999999999999
648,0.26666666666666669
2,1, 1, 1, 0, 1,45.00,60.00,Tuesday
6,7.2
239,1.015164304923135
312,32.48216730442479
313,23.431828828661616
349,37.88049853693202
350,20.825933472434899
599,0.0
600,0.0
603,127.09676215328794
604,127.09676215328638
645,0.0674849088245804
647,0.05991092590545855
649,0.5133333333333332
650,0.27999999999999999
662,5.209674367159348
663,0.0
726,108.3547585160584
727,0.0
730,4.605481473838805
731,0.003236844999898342
734,0.9898043892576705
735,0.0012104870605642463
737,0.0
739,0.0
741,0.0
743,0.0
892,25.29267630426625
893,4.214485224689026
894,7.200000000000003
895,0.6881132450570222
896,7.200000000000003
897,0.31715166808319508
898,27.859848353106579
899,30.50657606666667
900,26.185601039045446
901,30.50657606666667
902,26.185601039045446
903,30.50657606666667
904,26.185601039045446
905,30.50657606666667
906,29.988931824694846
907,4.210776466666667
908,7.200000000000003
909,0.4295388378822359
910,7.200000000000003
911,0.6962643543850635
912,33.908148944637058
913,36.89408526666667
914,32.31157372502135
915,36.89408526666667
916,32.31157372502135
917,36.89408526666667
918,32.26849355400251
919,36.89408526666667
920,32.61196405670522
921,4.214485224689026
922,28.8428745698646
923,4.214485224689026
924,29.181758639514464
925,34.28050813925324
926,13.154789245728619
927,0.31715166808319508
646,0.26666666666666669
648,0.13333333333333334
2,1, 1, 1, 0, 1, 0.00,60.00,Tuesday
133,24353.150768681364
134,20635.11483405967
135,4498.826560274102
136,13936.849545599995
137,10219.334400000002
138,4498.826560274102
139,49487.092163015135
173,7.331570097322516
174,20.605726375616809
175,5.988558571667002
176,0.3978680567643452
177,28.04128626580708
178,0.08280243549708243
179,1.0
180,0.0
181,0.0
182,0.0
183,0.0
184,0.0
185,1.0
186,0.0
187,0.0
188,0.0
189,0.0
190,0.0
191,-19.602131943235656
192,24353.150768681364
193,20635.11483405967
194,4498.826560274102
195,13936.849545599995
196,10219.334400000002
197,4498.826560274102
198,49487.092163015135
199,24769.46564672895
200,20622.17003422725
201,4539.163568095619
202,15546.354479999996
203,11399.520000000002
204,4539.163568095619
205,49930.79924905182
209,7.3686058906561719
210,19.44971149559366
211,7.521995218683095
212,0.46268410034048115
213,26.886007872591344
214,0.11298377493537741
215,1.0
216,0.0
217,0.0
218,0.0
219,0.0
220,0.0
221,1.0
222,0.0
223,0.0
224,0.0
225,0.0
226,0.0
227,-19.53731589965952
228,24769.46564672895
229,20622.17003422725
230,4539.163568095619
231,15546.354479999996
232,11399.520000000002
233,4539.163568095619
234,49930.79924905182
315,20.0
316,23.0
352,20.0
353,23.0
387,0.0
388,0.0
422,0.0
423,0.0
525,0.0
526,0.0
527,0.75
528,0.0
529,0.0
530,0.0
531,1.0
532,0.0
533,0.0
534,0.0
535,0.0
536,0.0
537,0.0
538,0.0
539,0.0
540,0.0
314,4.0
351,4.0
386,0.0
421,0.0
517,99446.29141206695
518,3314.6282233509555
519,102760.9196354179
520,0.03333333333333333
521,0.016666666666666668
522,0.03333333333333333
523,0.03333333333333333
524,0.11666666666666667
541,0.6438477285578413
542,0.4
543,0.727738415394499
544,0.5810234766725891
545,0.4
546,0.4097927074934764
605,1439.0579765341863
606,0.3382083070851783
607,1295.1521788807675
608,5180608.715523071
639,4.01638737993623
640,1473.3271829567786
641,0.3555653650575914
642,1325.9944646611007
643,5303977.858644402
644,4.060782685663913
766,17.93553289866033
788,10.205703788651255
789,10.152237056520792
790,20.53311503810741
802,9.92944591369619
803,9.929632997740452
2,1, 1, 1, 0, 2, 0.00,15.00,Tuesday
6,7.2
239,1.02309883701228
312,33.78742054688009
313,22.672425138325388
349,42.393556322054468
350,15.301111014617807
599,0.0
600,0.0
603,2437.092427083338
604,2437.0924270833048
645,0.2168199999336068
647,0.15850906856851217
649,0.2333333333333333
650,0.32666666666666668
662,132.02434549061435
663,0.0
726,109.47185387817602
727,0.0
730,8.0
731,0.0035452180950563828
734,3.7504842735689958
735,0.001088529158064018
737,114.26843530755595
739,80.25091854254218
741,0.0
743,0.0
892,20.167531515055907
893,4.211747912344514
894,7.200000000000003
895,1.5255915576802784
896,7.200000000000003
897,1.5208647997148806
898,22.718869516257326
899,25.343797133333337
900,18.474243559889048
901,25.343797133333337
902,18.42922983789119
903,25.343797133333337
904,18.42922983789119
905,25.343797133333337
906,23.668711560205176
907,3.422711906991739
908,7.200000000000003
909,1.2991818242238043
910,7.200000000000003
911,0.919316731384017
912,29.863194567645278
913,31.948944799999997
914,25.261107212516366
915,31.948944799999997
916,25.261107212516366
917,31.948944799999997
918,24.918814329077504
919,31.948944799999997
920,33.69537898277679
921,4.211747912344514
922,24.09553714778253
923,4.211747912344514
924,24.41390149958822
925,30.948542973064265
926,16.011298516133505
927,1.5208647997148806
646,0.6
648,0.3333333333333333
2,1, 1, 1, 0, 2,15.00,30.00,Tuesday
6,7.2
239,1.0171309107262839
312,32.23676798048446
313,24.14962407229154
349,44.46993436195663
350,12.544431856879485
599,0.0
600,0.0
603,0.0
604,0.0
645,0.14349739877367813
647,0.06084754181411895
649,0.41999999999999995
650,0.32666666666666668
662,29.217607570136147
663,0.0
726,1.6855727787660835
727,0.0
730,6.0
731,0.003086438596502661
734,2.60200602249959
735,0.0009487098383343694
737,0.0
739,0.0
741,0.0
743,0.0
892,20.51958741570013
893,3.8878190456778469
894,7.200000000000003
895,1.3362863445450176
896,7.200000000000003
897,0.6732431670428317
898,23.27896522157659
899,27.127852933333334
900,21.049415743805097
901,27.127852933333334
902,21.049415743805097
903,27.127852933333334
904,21.049415743805097
905,27.127852933333334
906,30.64929981631258
907,4.3433210093223189
908,7.200000000000003
909,1.024823767695739
910,7.200000000000003
911,0.2432287322754957
912,34.73142614523646
913,36.548936266666668
914,33.45539345161483