Program Version,EnergyPlus, Version 8.8.0-Unknown, YMD=2019.07.16 14:30
1,5,Environment Title[],Latitude[deg],Longitude[deg],Time Zone[],Elevation[m]
2,6,Day of Simulation[],Month[],Day of Month[],DST Indicator[1=yes 0=no],Hour[],StartMinute[],EndMinute[],DayType
3,3,Cumulative Day of Simulation[],Month[],Day of Month[],DST Indicator[1=yes 0=no],DayType  ! When Daily Report Variables Requested
4,2,Cumulative Days of Simulation[],Month[]  ! When Monthly Report Variables Requested
5,1,Cumulative Days of Simulation[] ! When Run Period Report Variables Requested
6,1,Environment,Site Outdoor Air Drybulb Temperature [C] !TimeStep
133,1,WESTDATACENTER_EQUIP,ITE CPU Electric Power [W] !Hourly
134,1,WESTDATACENTER_EQUIP,ITE Fan Electric Power [W] !Hourly
135,1,WESTDATACENTER_EQUIP,ITE UPS Electric Power [W] !Hourly
136,1,WESTDATACENTER_EQUIP,ITE CPU Electric Power at Design Inlet Conditions [W] !Hourly
137,1,WESTDATACENTER_EQUIP,ITE Fan Electric Power at Design Inlet Conditions [W] !Hourly
138,1,WESTDATACENTER_EQUIP,ITE UPS Heat Gain to Zone Rate [W] !Hourly
139,1,WESTDATACENTER_EQUIP,ITE Total Heat Gain to Zone Rate [W] !Hourly
173,1,WESTDATACENTER_EQUIP,ITE Standard Density Air Volume Flow Rate [m3/s] !Hourly
174,1,WESTDATACENTER_EQUIP,ITE Air Inlet Dry-Bulb Temperature [C] !Hourly
175,1,WESTDATACENTER_EQUIP,ITE Air Inlet Dewpoint Temperature [C] !Hourly
176,1,WESTDATACENTER_EQUIP,ITE Air Inlet Relative Humidity [%] !Hourly
177,1,WESTDATACENTER_EQUIP,ITE Air Outlet Dry-Bulb Temperature [C] !Hourly
178,1,WESTDATACENTER_EQUIP,ITE Supply Heat Index [] !Hourly
179,1,WESTDATACENTER_EQUIP,ITE Air Inlet Operating Range Exceeded Time [hr] !Hourly
180,1,WESTDATACENTER_EQUIP,ITE Air Inlet Dry-Bulb Temperature Above Operating Range Time [hr] !Hourly
181,1,WESTDATACENTER_EQUIP,ITE Air Inlet Dry-Bulb Temperature Below Operating Range Time [hr] !Hourly
182,1,WESTDATACENTER_EQUIP,ITE Air Inlet Dewpoint Temperature Above Operating Range Time [hr] !Hourly
183,1,WESTDATACENTER_EQUIP,ITE Air Inlet Dewpoint Temperature Below Operating Range Time [hr] !Hourly
184,1,WESTDATACENTER_EQUIP,ITE Air Inlet Relative Humidity Above Operating Range Time [hr] !Hourly
185,1,WESTDATACENTER_EQUIP,ITE Air Inlet Relative Humidity Below Operating Range Time [hr] !Hourly
186,1,WESTDATACENTER_EQUIP,ITE Air Inlet Dry-Bulb Temperature Difference Above Operating Range [deltaC] !Hourly
187,1,WESTDATACENTER_EQUIP,ITE Air Inlet Dry-Bulb Temperature Difference Below Operating Range [deltaC] !Hourly
188,1,WESTDATACENTER_EQUIP,ITE Air Inlet Dewpoint Temperature Difference Above Operating Range [deltaC] !Hourly
189,1,WESTDATACENTER_EQUIP,ITE Air Inlet Dewpoint Temperature Difference Below Operating Range [deltaC] !Hourly
190,1,WESTDATACENTER_EQUIP,ITE Air Inlet Relative Humidity Difference Above Operating Range [%] !Hourly
191,1,WESTDATACENTER_EQUIP,ITE Air Inlet Relative Humidity Difference Below Operating Range [%] !Hourly
192,1,WEST ZONE,Zone ITE CPU Electric Power [W] !Hourly
193,1,WEST ZONE,Zone ITE Fan Electric Power [W] !Hourly
194,1,WEST ZONE,Zone ITE UPS Electric Power [W] !Hourly
195,1,WEST ZONE,Zone ITE CPU Electric Power at Design Inlet Conditions [W] !Hourly
196,1,WEST ZONE,Zone ITE Fan Electric Power at Design Inlet Conditions [W] !Hourly
197,1,WEST ZONE,Zone ITE UPS Heat Gain to Zone Rate [W] !Hourly
198,1,WEST ZONE,Zone ITE Total Heat Gain to Zone Rate [W] !Hourly
199,1,EASTDATACENTER_EQUIP,ITE CPU Electric Power [W] !Hourly
200,1,EASTDATACENTER_EQUIP,ITE Fan Electric Power [W] !Hourly
201,1,EASTDATACENTER_EQUIP,ITE UPS Electric Power [W] !Hourly
202,1,EASTDATACENTER_EQUIP,ITE CPU Electric Power at Design Inlet Conditions [W] !Hourly
203,1,EASTDATACENTER_EQUIP,ITE Fan Electric Power at Design Inlet Conditions [W] !Hourly
204,1,EASTDATACENTER_EQUIP,ITE UPS Heat Gain to Zone Rate [W] !Hourly
205,1,EASTDATACENTER_EQUIP,ITE Total Heat Gain to Zone Rate [W] !Hourly
209,1,EASTDATACENTER_EQUIP,ITE Standard Density Air Volume Flow Rate [m3/s] !Hourly
210,1,EASTDATACENTER_EQUIP,ITE Air Inlet Dry-Bulb Temperature [C] !Hourly
211,1,EASTDATACENTER_EQUIP,ITE Air Inlet Dewpoint Temperature [C] !Hourly
212,1,EASTDATACENTER_EQUIP,ITE Air Inlet Relative Humidity [%] !Hourly
213,1,EASTDATACENTER_EQUIP,ITE Air Outlet Dry-Bulb Temperature [C] !Hourly
214,1,EASTDATACENTER_EQUIP,ITE Supply Heat Index [] !Hourly
215,1,EASTDATACENTER_EQUIP,ITE Air Inlet Operating Range Exceeded Time [hr] !Hourly
216,1,EASTDATACENTER_EQUIP,ITE Air Inlet Dry-Bulb Temperature Above Operating Range Time [hr] !Hourly
217,1,EASTDATACENTER_EQUIP,ITE Air Inlet Dry-Bulb Temperature Below Operating Range Time [hr] !Hourly
218,1,EASTDATACENTER_EQUIP,ITE Air Inlet Dewpoint Temperature Above Operating Range Time [hr] !Hourly
219,1,EASTDATACENTER_EQUIP,ITE Air Inlet Dewpoint Temperature Below Operating Range Time [hr] !Hourly
220,1,EASTDATACENTER_EQUIP,ITE Air Inlet Relative Humidity Above Operating Range Time [hr] !Hourly
221,1,EASTDATACENTER_EQUIP,ITE Air Inlet Relative Humidity Below Operating Range Time [hr] !Hourly
222,1,EASTDATACENTER_EQUIP,ITE Air Inlet Dry-Bulb Temperature Difference Above Operating Range [deltaC] !Hourly
223,1,EASTDATACENTER_EQUIP,ITE Air Inlet Dry-Bulb Temperature Difference Below Operating Range [deltaC] !Hourly
224,1,EASTDATACENTER_EQUIP,ITE Air Inlet Dewpoint Temperature Difference Above Operating Range [deltaC] !Hourly
225,1,EASTDATACENTER_EQUIP,ITE Air Inlet Dewpoint Temperature Difference Below Operating Range [deltaC] !Hourly
226,1,EASTDATACENTER_EQUIP,ITE Air Inlet Relative Humidity Difference Above Operating Range [%] !Hourly
227,1,EASTDATACENTER_EQUIP,ITE Air Inlet Relative Humidity Difference Below Operating Range [%] !Hourly
228,1,EAST ZONE,Zone ITE CPU Electric Power [W] !Hourly
229,1,EAST ZONE,Zone ITE Fan Electric Power [W] !Hourly
230,1,EAST ZONE,Zone ITE UPS Electric Power [W] !Hourly
231,1,EAST ZONE,Zone ITE CPU Electric Power at Design Inlet Conditions [W] !Hourly
232,1,EAST ZONE,Zone ITE Fan Electric Power at Design Inlet Conditions [W] !Hourly
233,1,EAST ZONE,Zone ITE UPS Heat Gain to Zone Rate [W] !Hourly
234,1,EAST ZONE,Zone ITE Total Heat Gain to Zone Rate [W] !Hourly
239,1,EMS,Power Utilization Effectiveness [] !TimeStep
312,1,WEST ZONE,Zone Air Temperature [C] !TimeStep
313,1,WEST ZONE,Zone Air Relative Humidity [%] !TimeStep
314,1,WEST ZONE,Zone Thermostat Control Type [] !Hourly
315,1,WEST ZONE,Zone Thermostat Heating Setpoint Temperature [C] !Hourly
316,1,WEST ZONE,Zone Thermostat Cooling Setpoint Temperature [C] !Hourly
349,1,EAST ZONE,Zone Air Temperature [C] !TimeStep
350,1,EAST ZONE,Zone Air Relative Humidity [%] !TimeStep
351,1,EAST ZONE,Zone Thermostat Control Type [] !Hourly
352,1,EAST ZONE,Zone Thermostat Heating Setpoint Temperature [C] !Hourly
353,1,EAST ZONE,Zone Thermostat Cooling Setpoint Temperature [C] !Hourly
386,1,WEST PLENUM,Zone Thermostat Control Type [] !Hourly
387,1,WEST PLENUM,Zone Thermostat Heating Setpoint Temperature [C] !Hourly
388,1,WEST PLENUM,Zone Thermostat Cooling Setpoint Temperature [C] !Hourly
421,1,EAST PLENUM,Zone Thermostat Control Type [] !Hourly
422,1,EAST PLENUM,Zone Thermostat Heating Setpoint Temperature [C] !Hourly
423,1,EAST PLENUM,Zone Thermostat Cooling Setpoint Temperature [C] !Hourly
517,1,Whole Building,Facility Total Building Electric Demand Power [W] !Hourly
518,1,Whole Building,Facility Total HVAC Electric Demand Power [W] !Hourly
519,1,Whole Building,Facility Total Electric Demand Power [W] !Hourly
520,1,WEST ZONE,Zone Oscillating Temperatures Time [hr] !Hourly
521,1,EAST ZONE,Zone Oscillating Temperatures Time [hr] !Hourly
522,1,WEST PLENUM,Zone Oscillating Temperatures Time [hr] !Hourly
523,1,EAST PLENUM,Zone Oscillating Temperatures Time [hr] !Hourly
524,1,Facility,Facility Any Zone Oscillating Temperatures Time [hr] !Hourly
525,1,WEST ZONE,Zone Heating Setpoint Not Met Time [hr] !Hourly
526,1,WEST ZONE,Zone Heating Setpoint Not Met While Occupied Time [hr] !Hourly
527,1,WEST ZONE,Zone Cooling Setpoint Not Met Time [hr] !Hourly
528,1,WEST ZONE,Zone Cooling Setpoint Not Met While Occupied Time [hr] !Hourly
529,1,EAST ZONE,Zone Heating Setpoint Not Met Time [hr] !Hourly
530,1,EAST ZONE,Zone Heating Setpoint Not Met While Occupied Time [hr] !Hourly
531,1,EAST ZONE,Zone Cooling Setpoint Not Met Time [hr] !Hourly
532,1,EAST ZONE,Zone Cooling Setpoint Not Met While Occupied Time [hr] !Hourly
533,1,WEST PLENUM,Zone Heating Setpoint Not Met Time [hr] !Hourly
534,1,WEST PLENUM,Zone Heating Setpoint Not Met While Occupied Time [hr] !Hourly
535,1,WEST PLENUM,Zone Cooling Setpoint Not Met Time [hr] !Hourly
536,1,WEST PLENUM,Zone Cooling Setpoint Not Met While Occupied Time [hr] !Hourly
537,1,EAST PLENUM,Zone Heating Setpoint Not Met Time [hr] !Hourly
538,1,EAST PLENUM,Zone Heating Setpoint Not Met While Occupied Time [hr] !Hourly
539,1,EAST PLENUM,Zone Cooling Setpoint Not Met Time [hr] !Hourly
540,1,EAST PLENUM,Zone Cooling Setpoint Not Met While Occupied Time [hr] !Hourly
541,1,WEST ZONE VAV SYSTEM,Zone Air Terminal VAV Damper Position [] !Hourly
542,1,WEST ZONE VAV SYSTEM,Zone Air Terminal Minimum Air Flow Fraction [] !Hourly
543,1,WEST ZONE VAV SYSTEM,Zone Air Terminal Outdoor Air Volume Flow Rate [m3/s] !Hourly
544,1,EAST ZONE VAV SYSTEM,Zone Air Terminal VAV Damper Position [] !Hourly
545,1,EAST ZONE VAV SYSTEM,Zone Air Terminal Minimum Air Flow Fraction [] !Hourly
546,1,EAST ZONE VAV SYSTEM,Zone Air Terminal Outdoor Air Volume Flow Rate [m3/s] !Hourly
599,1,WEST ZONE CW COOLING COIL,Cooling Coil Total Cooling Rate [W] !TimeStep
600,1,WEST ZONE CW COOLING COIL,Cooling Coil Sensible Cooling Rate [W] !TimeStep
603,1,EAST ZONE CW COOLING COIL,Cooling Coil Total Cooling Rate [W] !TimeStep
604,1,EAST ZONE CW COOLING COIL,Cooling Coil Sensible Cooling Rate [W] !TimeStep
605,1,WEST ZONE SUPPLY FAN,Fan Electric Power [W] !Hourly
606,1,WEST ZONE SUPPLY FAN,Fan Rise in Air Temperature [deltaC] !Hourly
607,1,WEST ZONE SUPPLY FAN,Fan Heat Gain to Air [W] !Hourly
608,1,WEST ZONE SUPPLY FAN,Fan Electric Energy [J] !Hourly
639,1,WEST ZONE SUPPLY FAN,Fan Air Mass Flow Rate [kg/s] !Hourly
640,1,EAST ZONE SUPPLY FAN,Fan Electric Power [W] !Hourly
641,1,EAST ZONE SUPPLY FAN,Fan Rise in Air Temperature [deltaC] !Hourly
642,1,EAST ZONE SUPPLY FAN,Fan Heat Gain to Air [W] !Hourly
643,1,EAST ZONE SUPPLY FAN,Fan Electric Energy [J] !Hourly
644,1,EAST ZONE SUPPLY FAN,Fan Air Mass Flow Rate [kg/s] !Hourly
645,1,WEST DATA CENTER IEC,Evaporative Cooler Total Stage Effectiveness [] !TimeStep
646,1,WEST DATA CENTER IEC,Evaporative Cooler Operating Mode Status [] !TimeStep
647,1,EAST DATA CENTER IEC,Evaporative Cooler Total Stage Effectiveness [] !TimeStep
648,1,EAST DATA CENTER IEC,Evaporative Cooler Operating Mode Status [] !TimeStep
649,1,WEST DATA CENTER DEC,Evaporative Cooler Stage Effectiveness [] !TimeStep
650,1,EAST DATA CENTER DEC,Evaporative Cooler Stage Effectiveness [] !TimeStep
662,1,WEST DATA CENTER IEC,Evaporative Cooler Electric Power [W] !TimeStep
663,1,WEST DATA CENTER IEC,Evaporative Cooler Water Volume [m3] !TimeStep
726,1,EAST DATA CENTER IEC,Evaporative Cooler Electric Power [W] !TimeStep
727,1,EAST DATA CENTER IEC,Evaporative Cooler Water Volume [m3] !TimeStep
730,1,WEST DATA CENTER DEC,Evaporative Cooler Electric Power [W] !TimeStep
731,1,WEST DATA CENTER DEC,Evaporative Cooler Water Volume [m3] !TimeStep
734,1,EAST DATA CENTER DEC,Evaporative Cooler Electric Power [W] !TimeStep
735,1,EAST DATA CENTER DEC,Evaporative Cooler Water Volume [m3] !TimeStep
737,1,WEST DX COOLING COIL,Cooling Coil Total Cooling Rate [W] !TimeStep
739,1,WEST DX COOLING COIL,Cooling Coil Sensible Cooling Rate [W] !TimeStep
741,1,EAST DX COOLING COIL,Cooling Coil Total Cooling Rate [W] !TimeStep
743,1,EAST DX COOLING COIL,Cooling Coil Sensible Cooling Rate [W] !TimeStep
766,1,CHILLER,Chiller Evaporator Cooling Rate [W] !Hourly
788,1,CHILLER,Chiller Evaporator Inlet Temperature [C] !Hourly
789,1,CHILLER,Chiller Evaporator Outlet Temperature [C] !Hourly
790,1,CHILLER,Chiller Condenser Heat Transfer Rate [W] !Hourly
802,1,CHILLER,Chiller Condenser Inlet Temperature [C] !Hourly
803,1,CHILLER,Chiller Condenser Outlet Temperature [C] !Hourly
892,1,WEST ZONE INLET NODE,System Node Temperature [C] !TimeStep
893,1,WEST ZONE INLET NODE,System Node Mass Flow Rate [kg/s] !TimeStep
894,1,WEST OUTSIDE AIR INLET NODE,System Node Temperature [C] !TimeStep
895,1,WEST OUTSIDE AIR INLET NODE,System Node Mass Flow Rate [kg/s] !TimeStep
896,1,WEST IEC SECONDARY AIR INLET NODE,System Node Temperature [C] !TimeStep
897,1,WEST IEC SECONDARY AIR INLET NODE,System Node Mass Flow Rate [kg/s] !TimeStep
898,1,WEST ZONE DEC OUTLET NODE,System Node Temperature [C] !TimeStep
899,1,WEST ZONE DEC OUTLET NODE,System Node Setpoint Temperature [C] !TimeStep
900,1,WEST ZONE IEC OUTLET NODE,System Node Temperature [C] !TimeStep
901,1,WEST ZONE IEC OUTLET NODE,System Node Setpoint Temperature [C] !TimeStep
902,1,WEST ZONE CCOIL AIR OUTLET NODE,System Node Temperature [C] !TimeStep
903,1,WEST ZONE CCOIL AIR OUTLET NODE,System Node Setpoint Temperature [C] !TimeStep
904,1,WEST AIR LOOP OUTLET NODE,System Node Temperature [C] !TimeStep
905,1,WEST AIR LOOP OUTLET NODE,System Node Setpoint Temperature [C] !TimeStep
906,1,EAST ZONE INLET NODE,System Node Temperature [C] !TimeStep
907,1,EAST ZONE INLET NODE,System Node Mass Flow Rate [kg/s] !TimeStep
908,1,EAST OUTSIDE AIR INLET NODE,System Node Temperature [C] !TimeStep
909,1,EAST OUTSIDE AIR INLET NODE,System Node Mass Flow Rate [kg/s] !TimeStep
910,1,EAST IEC SECONDARY AIR INLET NODE,System Node Temperature [C] !TimeStep
911,1,EAST IEC SECONDARY AIR INLET NODE,System Node Mass Flow Rate [kg/s] !TimeStep
912,1,EAST ZONE DEC OUTLET NODE,System Node Temperature [C] !TimeStep
913,1,EAST ZONE DEC OUTLET NODE,System Node Setpoint Temperature [C] !TimeStep
914,1,EAST ZONE IEC OUTLET NODE,System Node Temperature [C] !TimeStep
915,1,EAST ZONE IEC OUTLET NODE,System Node Setpoint Temperature [C] !TimeStep
916,1,EAST ZONE CCOIL AIR OUTLET NODE,System Node Temperature [C] !TimeStep
917,1,EAST ZONE CCOIL AIR OUTLET NODE,System Node Setpoint Temperature [C] !TimeStep
918,1,EAST AIR LOOP OUTLET NODE,System Node Temperature [C] !TimeStep
919,1,EAST AIR LOOP OUTLET NODE,System Node Setpoint Temperature [C] !TimeStep
920,1,WEST ZONE RETURN AIR NODE,System Node Temperature [C] !TimeStep
921,1,WEST ZONE RETURN AIR NODE,System Node Mass Flow Rate [kg/s] !TimeStep
922,1,WEST ZONE MIXED AIR NODE,System Node Temperature [C] !TimeStep
923,1,WEST ZONE MIXED AIR NODE,System Node Mass Flow Rate [kg/s] !TimeStep
924,1,WEST ZONE SUPPLY FAN OUTLET NODE,System Node Temperature [C] !TimeStep
925,1,EAST ZONE SUPPLY FAN OUTLET NODE,System Node Temperature [C] !TimeStep
926,1,WEST IEC SECONDARY AIR OUTLET NODE,System Node Temperature [C] !TimeStep
927,1,WEST IEC SECONDARY AIR OUTLET NODE,System Node Mass Flow Rate [kg/s] !TimeStep
End of Data Dictionary
1,WHOLEYEARDAY,  37.62,-122.40,  -8.00,   2.00
2,1, 1, 1, 0, 1, 0.00,15.00,Tuesday
6,6.825
239,1.0300298866314462
312,20.82106978260764
313,37.82355618406756
349,21.369367299975936
350,35.15596055617529
599,0.0
600,0.0
603,0.0
604,0.0
645,0.14604852636300329
647,0.041090418058653658
649,0.46666666666666659
650,0.6533333333333331
662,21.688056608152079
663,0.0
726,23.583156943070134
727,0.0
730,9.322922695529816
731,0.0037412106764774359
734,2.0
735,0.0018718555490041152
737,0.0
739,0.0
741,0.0
743,0.0
892,14.642298284829533
893,3.3568875333333336
894,6.825
895,0.7382789712112456
896,6.825
897,0.704629259578323
898,15.75828972001256
899,21.017170933333334
900,14.548781677752427
901,21.017170933333334
902,14.548781677752427
903,21.017170933333334
904,14.548781677752427
905,21.017170933333334
906,18.750301745606973
907,6.989016534958693
908,6.825
909,0.3654628167319435
910,6.825
911,0.38018902833800785
912,20.329194382391
913,31.840555666666668
914,19.952078253405266
915,31.840555666666668
916,19.952078253405266
917,31.840555666666668
918,19.952078253405266
919,31.840555666666668
920,20.921359685713857
921,3.3568875333333336
922,17.299616220359519
923,3.3568875333333336
924,17.638026156337106
925,20.81553707671724
926,8.581951888306574
927,0.704629259578323
646,0.26666666666666669
648,0.06666666666666667
2,1, 1, 1, 0, 1,15.00,30.00,Tuesday
6,6.95
239,1.0817065456702726
312,26.077815157958278
313,31.340340180675008
349,27.701366396216959
350,26.674167727653104
599,0.0
600,0.0
603,1780.398079669985
604,138.48056605670252
645,0.15967038017157779
647,0.07983682573836419
649,0.46666666666666659
650,0.6066666666666665
662,199.3602921590496
663,0.0
726,117.89480482870447
727,0.0
730,8.353445480931815
731,0.004144397374538539
734,5.941949111958325
735,0.0066799729949981148
737,2820.8647531138713
739,178.11952704035077
741,0.0
743,0.0
892,17.250593816596994
893,3.8498167561722558
894,6.9499999999999979
895,1.05155578888091
896,6.9499999999999979
897,1.512485176081071
898,17.865978164240525
899,23.628719599999998
900,16.125472103464973
901,23.628719599999998
902,16.080319945647596
903,23.628719599999998
904,16.080319945647596
905,23.628719599999998
906,20.432557506471569
907,6.983606232628113
908,6.9499999999999979
909,1.144182752635435
910,6.9499999999999979
911,0.9512130807222304
912,22.36315006095131
913,28.697042133333335
914,21.370774138952215
915,28.697042133333335
916,21.370774138952215
917,28.697042133333335
918,21.351381442641189
919,28.697042133333335
920,25.512838945499074
921,3.8498167561722558
922,19.513353115475046
923,3.8498167561722558
924,19.82961607841105
925,24.091606467124199
926,8.477705600606928
927,1.512485176081071
646,0.26666666666666669
648,0.13333333333333334
2,1, 1, 1, 0, 1,30.00,45.00,Tuesday
6,7.075
239,1.0305273218063989
312,27.836979550504254
313,30.35522012188234
349,31.793539954022806
350,25.573021680614777
599,0.0
600,0.0
603,0.4353234180037553
604,0.43532341800339477
645,0.1031879598581566
647,0.013966554396165267
649,0.5133333333333332
650,0.6999999999999997
662,97.26747180459826
663,0.0
726,0.4439299181778664
727,0.0
730,8.990742671148363
731,0.004003768412123327
734,5.8308475431878279
735,0.006594107301029701
737,0.0
739,0.0
741,0.0
743,0.0
892,17.396855253231537
893,3.6094684000000005
894,7.075
895,1.174240081740732
896,7.075
897,0.786244415776667
898,19.28111494608921
899,22.856433266666668
900,18.274799825424954
901,22.856433266666668
902,18.274799825424954
903,22.856433266666668
904,18.274799825424954
905,22.856433266666668
906,26.586928622323858
907,6.773710730297533
908,7.075
909,0.5088555873830605
910,7.075
911,0.08245388979514898
912,27.959547545004978
913,32.8750984
914,27.724043384328576
915,32.8750984
916,27.724043384328576
917,32.8750984
918,27.72396103094877
919,32.8750984
920,27.53479272762489
921,3.6094684000000005
922,21.02505222932321
923,3.6094684000000005
924,21.32986921202504
925,29.846290506370985
926,8.941476040262529
927,0.786244415776667
646,0.26666666666666669
648,0.06666666666666667
2,1, 1, 1, 0, 1,45.00,60.00,Tuesday
6,7.2
239,1.0758117334837579
312,35.098639049399789
313,20.781552903982136
349,37.17760021154111
350,20.411746260440798
599,0.0
600,0.0
603,0.0
604,0.0
645,0.1359367486905273
647,0.08057219834431807
649,0.5133333333333332
650,0.5599999999999998
662,98.56139928904523
663,0.0
726,43.842308309041388
727,0.0
730,4.9598027154047739
731,0.002300508122480091
734,3.1678328090428069
735,0.003760467190422507
737,1012.6190040214047
739,52.37485744715879
741,0.0
743,0.0
892,22.581841957139774
893,3.2219451561722569
894,7.200000000000003
895,0.9113443037405675
896,7.200000000000003
897,0.9161795661514834
898,26.079926112032
899,27.5985056
900,23.42883983076432
901,27.5985056
902,23.411994924519463
903,27.5985056
904,23.411994924519463
905,27.5985056
906,25.759724110064466
907,6.80355309929478
908,7.200000000000003
909,1.4446601266599984
910,7.200000000000003
911,0.7372395121114556
912,29.687468481311599
913,32.21657673333333
914,27.14750170612258
915,32.21657673333333
916,27.14750170612258
917,32.21657673333333
918,27.14750170612258
919,32.21657673333333
920,34.247583027933568
921,3.2219451561722569
922,27.08635970479004
923,3.2219451561722569
924,27.429950737073275
925,30.76485638006815
926,13.00541192655422
927,0.9161795661514834
646,0.3333333333333333
648,0.13333333333333334
2,1, 1, 1, 0, 1, 0.00,60.00,Tuesday
133,23424.573434306174
134,19706.583926229872
135,4313.1157360536035
136,13936.849545599995
137,10219.334400000002
138,4313.1157360536035
139,47444.27309658965
173,7.0166932012046729
174,20.1059952000655
175,7.2589567053283059
176,0.4398513723663304
177,27.539297277223786
178,0.07912368978575314
179,1.0
180,0.0
181,0.0
182,0.0
183,0.0
184,0.0
185,1.0
186,0.0
187,0.0
188,0.0
189,0.0
190,0.0
191,-19.560148627633674
192,23424.573434306174
193,19706.583926229872
194,4313.1157360536035
195,13936.849545599995
196,10219.334400000002
197,4313.1157360536035
198,47444.27309658965
199,31211.36705925844
200,27063.749367790057
201,5827.511642704849
202,15546.354479999996
203,11399.520000000002
204,5827.511642704849
205,64102.62806975335
209,9.519570998512263
210,22.557621858012028
211,6.932416465976897
212,0.3798767108781994
213,29.974971400795885
214,0.06753284454447113
215,1.0
216,0.0
217,0.0
218,0.0
219,0.0
220,0.0
221,1.0
222,0.0
223,0.0
224,0.0
225,0.0
226,0.0
227,-19.6201232891218
228,31211.36705925844
229,27063.749367790057
230,5827.511642704849
231,15546.354479999996
232,11399.520000000002
233,5827.511642704849
234,64102.62806975335
315,20.0
316,23.0
352,20.0
353,23.0
387,0.0
388,0.0
422,0.0
423,0.0
525,0.0
526,0.0
527,0.75
528,0.0
529,0.0
530,0.0
531,0.75
532,0.0
533,0.0
534,0.0
535,0.0
536,0.0
537,0.0
538,0.0
539,0.0
540,0.0
314,4.0
351,4.0
386,0.0
421,0.0
517,111575.30116634301
518,4360.707099502357
519,115936.00826584533
520,0.0
521,0.0
522,0.03333333333333333
523,0.03333333333333333
524,0.06666666666666667
541,0.5625957753302224
542,0.4
543,0.8046811677269077
544,0.9854707904673008
545,0.4
546,0.7190811008776619
605,1219.0101414288572
606,0.3257702284746638
607,1097.1091272859715
608,4388436.509143885
639,3.509529461419462
640,2415.655719261047
641,0.30991609765639485
642,2174.090147334943
643,8696360.589339769
644,6.88747164929478
766,496.7429681300539
788,10.188041419505982
789,10.081821639549692
790,568.9105366194386
802,9.965651724717122
803,9.970835285553927
2,1, 1, 1, 0, 2, 0.00,15.00,Tuesday
6,7.2
239,1.013147219429848
312,34.72022041792103
313,20.635640313777225
349,38.12335864071066
350,18.703383925026004
599,0.0
600,0.0
603,0.0
604,0.0
645,0.10863238329343267
647,0.10458649752191407
649,0.32666666666666668
650,0.41999999999999995
662,194.0924432303237
663,0.0
726,47.160450937872848
727,0.0
730,4.964008830233133
731,0.003087088726813694
734,1.4412547203401825
735,0.0021266508601104456
737,1251.4216626862756
739,805.7358142696403
741,0.0
743,0.0
892,16.77243391417625
893,3.780153112344513
894,7.200000000000003
895,1.9279622786031972
896,7.200000000000003
897,1.3066658074735909
898,19.54564067506775
899,22.01630686666667
900,16.699894442420349
901,22.01630686666667
902,16.4676790392688
903,22.01630686666667
904,16.4676790392688
905,22.01630686666667
906,29.291455286560976
907,6.812618761300287
908,7.200000000000003
909,0.930617785450468
910,7.200000000000003
911,0.8630194098241903
912,33.40736045932292
913,33.5335696
914,30.306621786538896
915,33.5335696
916,30.306621786538896
917,33.5335696
918,30.306621786538896
919,33.5335696
920,34.92807534099364
921,3.780153112344513
922,20.384731344350869
923,3.780153112344513
924,20.705897250331458
925,33.955682648996788
926,9.199923570512692
927,1.3066658074735909
646,0.2
648,0.26666666666666669
2,1, 1, 1, 0, 2,15.00,30.00,Tuesday
6,7.2
239,1.0223709141377362
312,27.97951122027461
313,30.54566744013752
349,40.0347869632259
350,17.092819505595846
599,0.0
600,0.0
603,0.0
604,0.0
645,0.13846053097664899
647,0.042730973162022099
649,0.5133333333333332
650,0.5133333333333332
662,119.38021062554624
663,0.0
726,1.5860768477738763
727,0.0
730,11.830245379508153
731,0.00564748065369794
734,5.207984298829051
735,0.005916900323532003
737,2916.9597844712694
739,284.3838729796621
741,0.0
743,0.0
892,17.250848715058994
893,3.7447418895055906
894,7.200000000000003
895,1.5633335426685138
896,7.200000000000003
897,1.0640603442212793
898,17.99556462687916
899,22.735486133333333
900,16.616866510455318
901,22.735486133333333
902,16.57212887163838
903,22.735486133333333
904,16.57212887163838
905,22.735486133333333
906,29.291816717586138
907,6.7275247969642
908,7.200000000000003
909,1.7098194236896763
910,7.200000000000003
911,0.1901020145269818
912,30.170421620716007
913,32.886475133333338
914,29.203330036515394
915,32.886475133333338
