Program Version,EnergyPlus, Version 8.8.0-Unknown, YMD=2019.07.16 14:16
1,5,Environment Title[],Latitude[deg],Longitude[deg],Time Zone[],Elevation[m]
2,6,Day of Simulation[],Month[],Day of Month[],DST Indicator[1=yes 0=no],Hour[],StartMinute[],EndMinute[],DayType
3,3,Cumulative Day of Simulation[],Month[],Day of Month[],DST Indicator[1=yes 0=no],DayType  ! When Daily Report Variables Requested
4,2,Cumulative Days of Simulation[],Month[]  ! When Monthly Report Variables Requested
5,1,Cumulative Days of Simulation[] ! When Run Period Report Variables Requested
6,1,Environment,Site Outdoor Air Drybulb Temperature [C] !TimeStep
133,1,WESTDATACENTER_EQUIP,ITE CPU Electric Power [W] !Hourly
134,1,WESTDATACENTER_EQUIP,ITE Fan Electric Power [W] !Hourly
135,1,WESTDATACENTER_EQUIP,ITE UPS Electric Power [W] !Hourly
136,1,WESTDATACENTER_EQUIP,ITE CPU Electric Power at Design Inlet Conditions [W] !Hourly
137,1,WESTDATACENTER_EQUIP,ITE Fan Electric Power at Design Inlet Conditions [W] !Hourly
138,1,WESTDATACENTER_EQUIP,ITE UPS Heat Gain to Zone Rate [W] !Hourly
139,1,WESTDATACENTER_EQUIP,ITE Total Heat Gain to Zone Rate [W] !Hourly
173,1,WESTDATACENTER_EQUIP,ITE Standard Density Air Volume Flow Rate [m3/s] !Hourly
174,1,WESTDATACENTER_EQUIP,ITE Air Inlet Dry-Bulb Temperature [C] !Hourly
175,1,WESTDATACENTER_EQUIP,ITE Air Inlet Dewpoint Temperature [C] !Hourly
176,1,WESTDATACENTER_EQUIP,ITE Air Inlet Relative Humidity [%] !Hourly
177,1,WESTDATACENTER_EQUIP,ITE Air Outlet Dry-Bulb Temperature [C] !Hourly
178,1,WESTDATACENTER_EQUIP,ITE Supply Heat Index [] !Hourly
179,1,WESTDATACENTER_EQUIP,ITE Air Inlet Operating Range Exceeded Time [hr] !Hourly
180,1,WESTDATACENTER_EQUIP,ITE Air Inlet Dry-Bulb Temperature Above Operating Range Time [hr] !Hourly
181,1,WESTDATACENTER_EQUIP,ITE Air Inlet Dry-Bulb Temperature Below Operating Range Time [hr] !Hourly
182,1,WESTDATACENTER_EQUIP,ITE Air Inlet Dewpoint Temperature Above Operating Range Time [hr] !Hourly
183,1,WESTDATACENTER_EQUIP,ITE Air Inlet Dewpoint Temperature Below Operating Range Time [hr] !Hourly
184,1,WESTDATACENTER_EQUIP,ITE Air Inlet Relative Humidity Above Operating Range Time [hr] !Hourly
185,1,WESTDATACENTER_EQUIP,ITE Air Inlet Relative Humidity Below Operating Range Time [hr] !Hourly
186,1,WESTDATACENTER_EQUIP,ITE Air Inlet Dry-Bulb Temperature Difference Above Operating Range [deltaC] !Hourly
187,1,WESTDATACENTER_EQUIP,ITE Air Inlet Dry-Bulb Temperature Difference Below Operating Range [deltaC] !Hourly
188,1,WESTDATACENTER_EQUIP,ITE Air Inlet Dewpoint Temperature Difference Above Operating Range [deltaC] !Hourly
189,1,WESTDATACENTER_EQUIP,ITE Air Inlet Dewpoint Temperature Difference Below Operating Range [deltaC] !Hourly
190,1,WESTDATACENTER_EQUIP,ITE Air Inlet Relative Humidity Difference Above Operating Range [%] !Hourly
191,1,WESTDATACENTER_EQUIP,ITE Air Inlet Relative Humidity Difference Below Operating Range [%] !Hourly
192,1,WEST ZONE,Zone ITE CPU Electric Power [W] !Hourly
193,1,WEST ZONE,Zone ITE Fan Electric Power [W] !Hourly
194,1,WEST ZONE,Zone ITE UPS Electric Power [W] !Hourly
195,1,WEST ZONE,Zone ITE CPU Electric Power at Design Inlet Conditions [W] !Hourly
196,1,WEST ZONE,Zone ITE Fan Electric Power at Design Inlet Conditions [W] !Hourly
197,1,WEST ZONE,Zone ITE UPS Heat Gain to Zone Rate [W] !Hourly
198,1,WEST ZONE,Zone ITE Total Heat Gain to Zone Rate [W] !Hourly
199,1,EASTDATACENTER_EQUIP,ITE CPU Electric Power [W] !Hourly
200,1,EASTDATACENTER_EQUIP,ITE Fan Electric Power [W] !Hourly
201,1,EASTDATACENTER_EQUIP,ITE UPS Electric Power [W] !Hourly
202,1,EASTDATACENTER_EQUIP,ITE CPU Electric Power at Design Inlet Conditions [W] !Hourly
203,1,EASTDATACENTER_EQUIP,ITE Fan Electric Power at Design Inlet Conditions [W] !Hourly
204,1,EASTDATACENTER_EQUIP,ITE UPS Heat Gain to Zone Rate [W] !Hourly
205,1,EASTDATACENTER_EQUIP,ITE Total Heat Gain to Zone Rate [W] !Hourly
209,1,EASTDATACENTER_EQUIP,ITE Standard Density Air Volume Flow Rate [m3/s] !Hourly
210,1,EASTDATACENTER_EQUIP,ITE Air Inlet Dry-Bulb Temperature [C] !Hourly
211,1,EASTDATACENTER_EQUIP,ITE Air Inlet Dewpoint Temperature [C] !Hourly
212,1,EASTDATACENTER_EQUIP,ITE Air Inlet Relative Humidity [%] !Hourly
213,1,EASTDATACENTER_EQUIP,ITE Air Outlet Dry-Bulb Temperature [C] !Hourly
214,1,EASTDATACENTER_EQUIP,ITE Supply Heat Index [] !Hourly
215,1,EASTDATACENTER_EQUIP,ITE Air Inlet Operating Range Exceeded Time [hr] !Hourly
216,1,EASTDATACENTER_EQUIP,ITE Air Inlet Dry-Bulb Temperature Above Operating Range Time [hr] !Hourly
217,1,EASTDATACENTER_EQUIP,ITE Air Inlet Dry-Bulb Temperature Below Operating Range Time [hr] !Hourly
218,1,EASTDATACENTER_EQUIP,ITE Air Inlet Dewpoint Temperature Above Operating Range Time [hr] !Hourly
219,1,EASTDATACENTER_EQUIP,ITE Air Inlet Dewpoint Temperature Below Operating Range Time [hr] !Hourly
220,1,EASTDATACENTER_EQUIP,ITE Air Inlet Relative Humidity Above Operating Range Time [hr] !Hourly
221,1,EASTDATACENTER_EQUIP,ITE Air Inlet Relative Humidity Below Operating Range Time [hr] !Hourly
222,1,EASTDATACENTER_EQUIP,ITE Air Inlet Dry-Bulb Temperature Difference Above Operating Range [deltaC] !Hourly
223,1,EASTDATACENTER_EQUIP,ITE Air Inlet Dry-Bulb Temperature Difference Below Operating Range [deltaC] !Hourly
224,1,EASTDATACENTER_EQUIP,ITE Air Inlet Dewpoint Temperature Difference Above Operating Range [deltaC] !Hourly
225,1,EASTDATACENTER_EQUIP,ITE Air Inlet Dewpoint Temperature Difference Below Operating Range [deltaC] !Hourly
226,1,EASTDATACENTER_EQUIP,ITE Air Inlet Relative Humidity Difference Above Operating Range [%] !Hourly
227,1,EASTDATACENTER_EQUIP,ITE Air Inlet Relative Humidity Difference Below Operating Range [%] !Hourly
228,1,EAST ZONE,Zone ITE CPU Electric Power [W] !Hourly
229,1,EAST ZONE,Zone ITE Fan Electric Power [W] !Hourly
230,1,EAST ZONE,Zone ITE UPS Electric Power [W] !Hourly
231,1,EAST ZONE,Zone ITE CPU Electric Power at Design Inlet Conditions [W] !Hourly
232,1,EAST ZONE,Zone ITE Fan Electric Power at Design Inlet Conditions [W] !Hourly
233,1,EAST ZONE,Zone ITE UPS Heat Gain to Zone Rate [W] !Hourly
234,1,EAST ZONE,Zone ITE Total Heat Gain to Zone Rate [W] !Hourly
239,1,EMS,Power Utilization Effectiveness [] !TimeStep
312,1,WEST ZONE,Zone Air Temperature [C] !TimeStep
313,1,WEST ZONE,Zone Air Relative Humidity [%] !TimeStep
314,1,WEST ZONE,Zone Thermostat Control Type [] !Hourly
315,1,WEST ZONE,Zone Thermostat Heating Setpoint Temperature [C] !Hourly
316,1,WEST ZONE,Zone Thermostat Cooling Setpoint Temperature [C] !Hourly
349,1,EAST ZONE,Zone Air Temperature [C] !TimeStep
350,1,EAST ZONE,Zone Air Relative Humidity [%] !TimeStep
351,1,EAST ZONE,Zone Thermostat Control Type [] !Hourly
352,1,EAST ZONE,Zone Thermostat Heating Setpoint Temperature [C] !Hourly
353,1,EAST ZONE,Zone Thermostat Cooling Setpoint Temperature [C] !Hourly
386,1,WEST PLENUM,Zone Thermostat Control Type [] !Hourly
387,1,WEST PLENUM,Zone Thermostat Heating Setpoint Temperature [C] !Hourly
388,1,WEST PLENUM,Zone Thermostat Cooling Setpoint Temperature [C] !Hourly
421,1,EAST PLENUM,Zone Thermostat Control Type [] !Hourly
422,1,EAST PLENUM,Zone Thermostat Heating Setpoint Temperature [C] !Hourly
423,1,EAST PLENUM,Zone Thermostat Cooling Setpoint Temperature [C] !Hourly
517,1,Whole Building,Facility Total Building Electric Demand Power [W] !Hourly
518,1,Whole Building,Facility Total HVAC Electric Demand Power [W] !Hourly
519,1,Whole Building,Facility Total Electric Demand Power [W] !Hourly
520,1,WEST ZONE,Zone Oscillating Temperatures Time [hr] !Hourly
521,1,EAST ZONE,Zone Oscillating Temperatures Time [hr] !Hourly
522,1,WEST PLENUM,Zone Oscillating Temperatures Time [hr] !Hourly
523,1,EAST PLENUM,Zone Oscillating Temperatures Time [hr] !Hourly
524,1,Facility,Facility Any Zone Oscillating Temperatures Time [hr] !Hourly
525,1,WEST ZONE,Zone Heating Setpoint Not Met Time [hr] !Hourly
526,1,WEST ZONE,Zone Heating Setpoint Not Met While Occupied Time [hr] !Hourly
527,1,WEST ZONE,Zone Cooling Setpoint Not Met Time [hr] !Hourly
528,1,WEST ZONE,Zone Cooling Setpoint Not Met While Occupied Time [hr] !Hourly
529,1,EAST ZONE,Zone Heating Setpoint Not Met Time [hr] !Hourly
530,1,EAST ZONE,Zone Heating Setpoint Not Met While Occupied Time [hr] !Hourly
531,1,EAST ZONE,Zone Cooling Setpoint Not Met Time [hr] !Hourly
532,1,EAST ZONE,Zone Cooling Setpoint Not Met While Occupied Time [hr] !Hourly
533,1,WEST PLENUM,Zone Heating Setpoint Not Met Time [hr] !Hourly
534,1,WEST PLENUM,Zone Heating Setpoint Not Met While Occupied Time [hr] !Hourly
535,1,WEST PLENUM,Zone Cooling Setpoint Not Met Time [hr] !Hourly
536,1,WEST PLENUM,Zone Cooling Setpoint Not Met While Occupied Time [hr] !Hourly
537,1,EAST PLENUM,Zone Heating Setpoint Not Met Time [hr] !Hourly
538,1,EAST PLENUM,Zone Heating Setpoint Not Met While Occupied Time [hr] !Hourly
539,1,EAST PLENUM,Zone Cooling Setpoint Not Met Time [hr] !Hourly
540,1,EAST PLENUM,Zone Cooling Setpoint Not Met While Occupied Time [hr] !Hourly
541,1,WEST ZONE VAV SYSTEM,Zone Air Terminal VAV Damper Position [] !Hourly
542,1,WEST ZONE VAV SYSTEM,Zone Air Terminal Minimum Air Flow Fraction [] !Hourly
543,1,WEST ZONE VAV SYSTEM,Zone Air Terminal Outdoor Air Volume Flow Rate [m3/s] !Hourly
544,1,EAST ZONE VAV SYSTEM,Zone Air Terminal VAV Damper Position [] !Hourly
545,1,EAST ZONE VAV SYSTEM,Zone Air Terminal Minimum Air Flow Fraction [] !Hourly
546,1,EAST ZONE VAV SYSTEM,Zone Air Terminal Outdoor Air Volume Flow Rate [m3/s] !Hourly
599,1,WEST ZONE CW COOLING COIL,Cooling Coil Total Cooling Rate [W] !TimeStep
600,1,WEST ZONE CW COOLING COIL,Cooling Coil Sensible Cooling Rate [W] !TimeStep
603,1,EAST ZONE CW COOLING COIL,Cooling Coil Total Cooling Rate [W] !TimeStep
604,1,EAST ZONE CW COOLING COIL,Cooling Coil Sensible Cooling Rate [W] !TimeStep
605,1,WEST ZONE SUPPLY FAN,Fan Electric Power [W] !Hourly
606,1,WEST ZONE SUPPLY FAN,Fan Rise in Air Temperature [deltaC] !Hourly
607,1,WEST ZONE SUPPLY FAN,Fan Heat Gain to Air [W] !Hourly
608,1,WEST ZONE SUPPLY FAN,Fan Electric Energy [J] !Hourly
639,1,WEST ZONE SUPPLY FAN,Fan Air Mass Flow Rate [kg/s] !Hourly
640,1,EAST ZONE SUPPLY FAN,Fan Electric Power [W] !Hourly
641,1,EAST ZONE SUPPLY FAN,Fan Rise in Air Temperature [deltaC] !Hourly
642,1,EAST ZONE SUPPLY FAN,Fan Heat Gain to Air [W] !Hourly
643,1,EAST ZONE SUPPLY FAN,Fan Electric Energy [J] !Hourly
644,1,EAST ZONE SUPPLY FAN,Fan Air Mass Flow Rate [kg/s] !Hourly
645,1,WEST DATA CENTER IEC,Evaporative Cooler Total Stage Effectiveness [] !TimeStep
646,1,WEST DATA CENTER IEC,Evaporative Cooler Operating Mode Status [] !TimeStep
647,1,EAST DATA CENTER IEC,Evaporative Cooler Total Stage Effectiveness [] !TimeStep
648,1,EAST DATA CENTER IEC,Evaporative Cooler Operating Mode Status [] !TimeStep
649,1,WEST DATA CENTER DEC,Evaporative Cooler Stage Effectiveness [] !TimeStep
650,1,EAST DATA CENTER DEC,Evaporative Cooler Stage Effectiveness [] !TimeStep
662,1,WEST DATA CENTER IEC,Evaporative Cooler Electric Power [W] !TimeStep
663,1,WEST DATA CENTER IEC,Evaporative Cooler Water Volume [m3] !TimeStep
726,1,EAST DATA CENTER IEC,Evaporative Cooler Electric Power [W] !TimeStep
727,1,EAST DATA CENTER IEC,Evaporative Cooler Water Volume [m3] !TimeStep
730,1,WEST DATA CENTER DEC,Evaporative Cooler Electric Power [W] !TimeStep
731,1,WEST DATA CENTER DEC,Evaporative Cooler Water Volume [m3] !TimeStep
734,1,EAST DATA CENTER DEC,Evaporative Cooler Electric Power [W] !TimeStep
735,1,EAST DATA CENTER DEC,Evaporative Cooler Water Volume [m3] !TimeStep
737,1,WEST DX COOLING COIL,Cooling Coil Total Cooling Rate [W] !TimeStep
739,1,WEST DX COOLING COIL,Cooling Coil Sensible Cooling Rate [W] !TimeStep
741,1,EAST DX COOLING COIL,Cooling Coil Total Cooling Rate [W] !TimeStep
743,1,EAST DX COOLING COIL,Cooling Coil Sensible Cooling Rate [W] !TimeStep
766,1,CHILLER,Chiller Evaporator Cooling Rate [W] !Hourly
788,1,CHILLER,Chiller Evaporator Inlet Temperature [C] !Hourly
789,1,CHILLER,Chiller Evaporator Outlet Temperature [C] !Hourly
790,1,CHILLER,Chiller Condenser Heat Transfer Rate [W] !Hourly
802,1,CHILLER,Chiller Condenser Inlet Temperature [C] !Hourly
803,1,CHILLER,Chiller Condenser Outlet Temperature [C] !Hourly
892,1,WEST ZONE INLET NODE,System Node Temperature [C] !TimeStep
893,1,WEST ZONE INLET NODE,System Node Mass Flow Rate [kg/s] !TimeStep
894,1,WEST OUTSIDE AIR INLET NODE,System Node Temperature [C] !TimeStep
895,1,WEST OUTSIDE AIR INLET NODE,System Node Mass Flow Rate [kg/s] !TimeStep
896,1,WEST IEC SECONDARY AIR INLET NODE,System Node Temperature [C] !TimeStep
897,1,WEST IEC SECONDARY AIR INLET NODE,System Node Mass Flow Rate [kg/s] !TimeStep
898,1,WEST ZONE DEC OUTLET NODE,System Node Temperature [C] !TimeStep
899,1,WEST ZONE DEC OUTLET NODE,System Node Setpoint Temperature [C] !TimeStep
900,1,WEST ZONE IEC OUTLET NODE,System Node Temperature [C] !TimeStep
901,1,WEST ZONE IEC OUTLET NODE,System Node Setpoint Temperature [C] !TimeStep
902,1,WEST ZONE CCOIL AIR OUTLET NODE,System Node Temperature [C] !TimeStep
903,1,WEST ZONE CCOIL AIR OUTLET NODE,System Node Setpoint Temperature [C] !TimeStep
904,1,WEST AIR LOOP OUTLET NODE,System Node Temperature [C] !TimeStep
905,1,WEST AIR LOOP OUTLET NODE,System Node Setpoint Temperature [C] !TimeStep
906,1,EAST ZONE INLET NODE,System Node Temperature [C] !TimeStep
907,1,EAST ZONE INLET NODE,System Node Mass Flow Rate [kg/s] !TimeStep
908,1,EAST OUTSIDE AIR INLET NODE,System Node Temperature [C] !TimeStep
909,1,EAST OUTSIDE AIR INLET NODE,System Node Mass Flow Rate [kg/s] !TimeStep
910,1,EAST IEC SECONDARY AIR INLET NODE,System Node Temperature [C] !TimeStep
911,1,EAST IEC SECONDARY AIR INLET NODE,System Node Mass Flow Rate [kg/s] !TimeStep
912,1,EAST ZONE DEC OUTLET NODE,System Node Temperature [C] !TimeStep
913,1,EAST ZONE DEC OUTLET NODE,System Node Setpoint Temperature [C] !TimeStep
914,1,EAST ZONE IEC OUTLET NODE,System Node Temperature [C] !TimeStep
915,1,EAST ZONE IEC OUTLET NODE,System Node Setpoint Temperature [C] !TimeStep
916,1,EAST ZONE CCOIL AIR OUTLET NODE,System Node Temperature [C] !TimeStep
917,1,EAST ZONE CCOIL AIR OUTLET NODE,System Node Setpoint Temperature [C] !TimeStep
918,1,EAST AIR LOOP OUTLET NODE,System Node Temperature [C] !TimeStep
919,1,EAST AIR LOOP OUTLET NODE,System Node Setpoint Temperature [C] !TimeStep
920,1,WEST ZONE RETURN AIR NODE,System Node Temperature [C] !TimeStep
921,1,WEST ZONE RETURN AIR NODE,System Node Mass Flow Rate [kg/s] !TimeStep
922,1,WEST ZONE MIXED AIR NODE,System Node Temperature [C] !TimeStep
923,1,WEST ZONE MIXED AIR NODE,System Node Mass Flow Rate [kg/s] !TimeStep
924,1,WEST ZONE SUPPLY FAN OUTLET NODE,System Node Temperature [C] !TimeStep
925,1,EAST ZONE SUPPLY FAN OUTLET NODE,System Node Temperature [C] !TimeStep
926,1,WEST IEC SECONDARY AIR OUTLET NODE,System Node Temperature [C] !TimeStep
927,1,WEST IEC SECONDARY AIR OUTLET NODE,System Node Mass Flow Rate [kg/s] !TimeStep
End of Data Dictionary
1,WHOLEYEARDAY,  37.62,-122.40,  -8.00,   2.00
2,1, 1, 1, 0, 1, 0.00,15.00,Tuesday
6,6.825
239,1.0300298866314462
312,22.11131450668542
313,31.946192356607559
349,23.019468122351364
350,30.0345982854474
599,0.0
600,0.0
603,0.0
604,0.0
645,0.08265450845793232
647,0.037991648370823669
649,0.46666666666666659
650,0.6533333333333331
662,2.894359444084689
663,0.0
726,11.826380090475438
727,0.0
730,6.076756309011526
731,0.0014156671499024072
734,2.0
735,0.001682749968467269
737,0.0
739,0.0
741,0.0
743,0.0
892,16.244443861054824
893,3.147849312344513
894,6.825
895,0.8532572344215547
896,6.825
897,0.28978809921119527
898,17.224214170924794
899,24.241978266666665
900,16.62688868733797
901,24.241978266666665
902,16.62688868733797
903,24.241978266666665
904,16.62688868733797
905,24.241978266666665
906,19.648984020014674
907,5.584242311652896
908,6.825
909,0.2916415737465402
910,6.825
911,0.29153669783830457
912,21.827722309685009
913,37.74009973333333
914,21.46352775873939
915,37.74009973333333
916,21.46352775873939
917,37.74009973333333
918,21.46352775873939
919,37.74009973333333
920,22.147824123975167
921,3.147849312344513
922,18.15657845805188
923,3.147849312344513
924,18.52747145576077
925,22.333465421927664
926,8.529490942127153
927,0.28978809921119527
646,0.26666666666666669
648,0.06666666666666667
2,1, 1, 1, 0, 1,15.00,30.00,Tuesday
6,6.95
239,1.0607793694531072
312,23.75789068968936
313,33.514258322940467
349,33.09354384560615
350,18.09799251513049
599,0.0
600,0.0
603,0.0
604,0.0
645,0.14195523437718386
647,0.0
649,0.46666666666666659
650,0.6999999999999997
662,16.68972984514788
663,0.0
726,0.0
727,0.0
730,11.609188127681206
731,0.004306778384052124
734,0.8600054785354364
735,0.0008253834914583905
737,0.0
739,0.0
741,0.0
743,0.0
892,15.569367182720038
893,3.543304445677846
894,6.9499999999999979
895,1.3723823882962419
896,6.9499999999999979
897,0.5926277162442919
898,15.93800180818051
899,21.006216799999998
900,14.875481044601039
901,21.006216799999998
902,14.875481044601039
903,21.006216799999998
904,14.875481044601039
905,21.006216799999998
906,28.2421755525669
907,5.695773480650144
908,6.9499999999999979
909,0.14491024181323015
910,6.9499999999999979
911,0.0
912,31.366028859440737
913,37.690464
914,31.366028859440737
915,37.690464
916,31.366028859440737
917,37.690464
918,31.366028859440737
919,37.690464
920,23.504202451590645
921,3.543304445677846
922,17.855768950506748
923,3.543304445677846
924,18.22632947476293
925,31.7052185477281
926,9.109189234797452
927,0.5926277162442919
646,0.3333333333333333
648,0.0
2,1, 1, 1, 0, 1,30.00,45.00,Tuesday
6,7.075
239,1.0325632821060365
312,29.312166174989568
313,28.131537768793565
349,45.498448804323007
350,10.379185076162369
599,0.0
600,0.0
603,15.76827229773553
604,15.76827229773553
645,0.15153735107253234
647,0.012073214135619012
649,0.41999999999999995
650,0.5599999999999998
662,14.182571607970458
663,0.0
726,0.0
727,0.0
730,10.358861792731684
731,0.004770679879827499
734,3.562033128545769
735,0.003203019030532764
737,0.0
739,0.0
741,0.0
743,0.0
892,15.335307133850542
893,3.272431333333334
894,7.075
895,1.4708080195317828
896,7.075
897,0.6927964381177406
898,17.598507133724323
899,21.8466788
900,16.021879699648264
901,21.8466788
902,16.021879699648264
903,21.8466788
904,16.021879699648264
905,21.8466788
906,31.261428565249397
907,4.633244875988985
908,7.075
909,0.9074628519539351
910,7.075
911,0.016333083686303038
912,35.35031717819103
913,37.18119546666667
914,35.04327574954301
915,37.18119546666667
916,35.04327574954301
917,37.18119546666667
918,35.04105365974726
919,37.18119546666667
920,28.96732580690653
921,3.272431333333334
922,19.62994588379852
923,3.272431333333333
924,19.970807644598005
925,36.74012909552655
926,9.924257157800643
927,0.6927964381177406
646,0.3333333333333333
648,0.06666666666666667
2,1, 1, 1, 0, 1,45.00,60.00,Tuesday
6,7.2
239,1.0165945100989847
312,26.32954711394417
313,35.734703928485078
349,48.42621927793548
350,9.72114119881217
599,0.0
600,0.0
603,30.4402890609965
604,30.440289060997377
645,0.07224428333021021
647,0.05898271035944442
649,0.46666666666666659
650,0.32666666666666668
662,3.139618164230958
663,0.0
726,8.034214071746023
727,0.0
730,9.994988238346643
731,0.004999919776280767
734,1.7330222954929009
735,0.003118757295974154
737,0.0
739,0.0
741,0.0
743,0.0
892,18.600829112137313
893,4.057610780861283
894,7.200000000000003
895,1.1350506587362433
896,7.200000000000003
897,0.3296326974978592
898,18.79457465443776
899,25.194066066666666
900,18.06750869717385
901,25.194066066666666
902,18.06750869717385
903,25.194066066666666
904,18.06750869717385
905,25.194066066666666
906,31.924744185047606
907,4.421559035663913
908,7.200000000000003
909,1.2669464828978543
910,7.200000000000003
911,0.29067953573980506
912,36.86035668465018
913,37.2695632
914,34.92875911619822
915,37.2695632
916,34.92875911619822
917,37.2695632
918,34.92348470319708
919,37.2695632
920,26.716818160838483
921,4.057610780861283
922,20.619667231279658
923,4.057610780861283
924,20.957210213420639
925,37.67443715594526
926,9.654271104067823
927,0.3296326974978592
646,0.26666666666666669
648,0.13333333333333334
2,1, 1, 1, 0, 1, 0.00,60.00,Tuesday
133,18826.459944028058
134,15108.70033013156
135,3393.5160274159607
136,13936.849545599995
137,10219.334400000002
138,3393.5160274159607
139,37328.67630157557
173,5.436295899413297
174,17.631434843322436
175,6.240928194511132
176,0.4823674366343358
177,25.173372167311876
178,0.0951680328140363
179,1.0
180,0.0
181,0.0
182,0.0
183,0.0
184,0.0
185,1.0
186,0.0
187,0.0
188,0.0
189,0.0
190,0.0
191,-19.517632563365664
192,18826.459944028058
193,15108.70033013156
194,3393.5160274159607
195,13936.849545599995
196,10219.334400000002
197,3393.5160274159607
198,37328.67630157557
199,39296.45699057602
200,35148.4350648228
201,7444.4892055398805
202,15546.354479999996
203,11399.520000000002
204,7444.4892055398805
205,81889.38126093871
209,12.158117861208633
210,26.458292354110115
211,5.445432913747794
212,0.29615329668645548
213,33.895640066132809
214,0.08671103168346575
215,1.0
216,0.0
217,0.0
218,0.0
219,0.0
220,0.0
221,1.0
222,0.0
223,0.0
224,0.0
225,0.0
226,0.0
227,-19.703846703313546
228,39296.45699057602
229,35148.4350648228
230,7444.4892055398805
231,15546.354479999996
232,11399.520000000002
233,7444.4892055398805
234,81889.38126093871
315,20.0
316,23.0
352,20.0
353,23.0
387,0.0
388,0.0
422,0.0
423,0.0
525,0.0
526,0.0
527,0.75
528,0.0
529,0.0
530,0.0
531,0.75
532,0.0
533,0.0
534,0.0
535,0.0
536,0.0
537,0.0
538,0.0
539,0.0
540,0.0
314,4.0
351,4.0
386,0.0
421,0.0
517,119246.45756251426
518,3490.2187569388034
519,122736.67631945308
520,0.016666666666666668
521,0.0
522,0.08333333333333334
523,0.0
524,0.1
541,0.5619176053017334
542,0.4
543,1.0031987634546698
544,0.7273848760495214
545,0.4
546,0.5421326541678826
605,1286.952578546859
606,0.3549645662263842
607,1158.2573206921732
608,4633029.282768693
639,3.5052989680542439
640,1741.9638672502565
641,0.31332555746578885
642,1567.767480525231
643,6271069.922100924
644,5.083704925988984
766,1.8846522564836675
788,10.205356324591623
789,9.938088608210972
790,2.1575908158611716
802,9.928779469617828
803,9.928799128215657
2,1, 1, 1, 0, 2, 0.00,15.00,Tuesday
6,7.2
239,1.0152265576998552
312,24.96435186021265
313,40.13328674380181
349,50.26373226797849
350,9.069105446872506
599,0.0
600,0.0
603,50.71910858154577
604,50.71910858154914
645,0.14549009887849213
647,0.020599692523944343
649,0.5133333333333332
650,0.2333333333333333
662,98.75250555195264
663,0.0
726,0.011134251592976883
727,0.0
730,9.390321225983005
731,0.00256859625888948
734,2.0
735,0.003637138347871417
737,1137.8908556553158
739,62.39308493571375
741,0.0
743,0.0
892,16.51010476736778
893,3.868303001850103
894,7.200000000000003
895,1.3875033534266784
896,7.200000000000003
897,0.8759821220360954
898,17.92972943895001
899,23.336091733333335
900,16.599213078226364
901,23.336091733333335
902,16.57434961310748
903,23.336091733333335
904,16.57434961310748
905,23.336091733333335
906,34.259073692105648
907,5.7199364449862319
908,7.200000000000003
909,1.5689445190807888
910,7.200000000000003
911,0.0534633323918595
912,37.67743604407332
913,38.613026133333338
914,37.22013217580424
915,38.613026133333338
916,37.22013217580424
917,38.613026133333338
918,37.212151465151077
919,38.613026133333338
920,25.206946137707566
921,3.868303001850103
922,19.211019942942249
923,3.868303001850103
924,19.5582378415286
925,38.613966769082747
926,8.784735991779455
927,0.8759821220360954
646,0.26666666666666669
648,0.13333333333333334
2,1, 1, 1, 0, 2,15.00,30.00,Tuesday
6,7.2
239,1.0250316694661437
312,26.769935079781509
313,32.92492680945512
349,52.87967939440221
350,8.01683605508928
599,0.0
600,0.0
603,16.180086820140845
604,16.18008682013572
645,0.252530502223516
647,0.001616824971245924
649,0.32666666666666668
650,0.27999999999999999
662,104.64502101607926
663,0.0
726,0.0
727,0.0
730,8.0
731,0.0022438079703653468
734,5.113191864647197
735,0.006771275220812011
737,680.5245719867783
739,42.83106122439203
741,0.0
743,0.0
892,16.310447085328769
893,3.6764306456778468
894,7.200000000000003
895,1.5976856259264248
896,7.200000000000003
897,1.290743728690591
898,16.1212784123076
899,20.693913333333336
900,14.071275928956969
901,20.693913333333336
902,14.04725769180215
903,20.693913333333336
904,14.04725769180215
905,20.693913333333336
906,34.04177378214697
907,5.243253204661158
908,7.200000000000003
909,1.8806505662589728
910,7.200000000000003
911,0.0008567907930130859
912,34.9246118320467
913,36.85733846666667
914,34.90855299229384
915,36.85733846666667
916,34.90855299229384
917,36.85733846666667
918,34.905270414862147
919,36.85733846666667
920,26.579585694140257
921,3.6764306456778468