Program Version,EnergyPlus, Version 8.8.0-Unknown, YMD=2019.07.12 13:30
1,5,Environment Title[],Latitude[deg],Longitude[deg],Time Zone[],Elevation[m]
2,6,Day of Simulation[],Month[],Day of Month[],DST Indicator[1=yes 0=no],Hour[],StartMinute[],EndMinute[],DayType
3,3,Cumulative Day of Simulation[],Month[],Day of Month[],DST Indicator[1=yes 0=no],DayType  ! When Daily Report Variables Requested
4,2,Cumulative Days of Simulation[],Month[]  ! When Monthly Report Variables Requested
5,1,Cumulative Days of Simulation[] ! When Run Period Report Variables Requested
6,1,Environment,Site Outdoor Air Drybulb Temperature [C] !TimeStep
133,1,WESTDATACENTER_EQUIP,ITE CPU Electric Power [W] !Hourly
134,1,WESTDATACENTER_EQUIP,ITE Fan Electric Power [W] !Hourly
135,1,WESTDATACENTER_EQUIP,ITE UPS Electric Power [W] !Hourly
136,1,WESTDATACENTER_EQUIP,ITE CPU Electric Power at Design Inlet Conditions [W] !Hourly
137,1,WESTDATACENTER_EQUIP,ITE Fan Electric Power at Design Inlet Conditions [W] !Hourly
138,1,WESTDATACENTER_EQUIP,ITE UPS Heat Gain to Zone Rate [W] !Hourly
139,1,WESTDATACENTER_EQUIP,ITE Total Heat Gain to Zone Rate [W] !Hourly
173,1,WESTDATACENTER_EQUIP,ITE Standard Density Air Volume Flow Rate [m3/s] !Hourly
174,1,WESTDATACENTER_EQUIP,ITE Air Inlet Dry-Bulb Temperature [C] !Hourly
175,1,WESTDATACENTER_EQUIP,ITE Air Inlet Dewpoint Temperature [C] !Hourly
176,1,WESTDATACENTER_EQUIP,ITE Air Inlet Relative Humidity [%] !Hourly
177,1,WESTDATACENTER_EQUIP,ITE Air Outlet Dry-Bulb Temperature [C] !Hourly
178,1,WESTDATACENTER_EQUIP,ITE Supply Heat Index [] !Hourly
179,1,WESTDATACENTER_EQUIP,ITE Air Inlet Operating Range Exceeded Time [hr] !Hourly
180,1,WESTDATACENTER_EQUIP,ITE Air Inlet Dry-Bulb Temperature Above Operating Range Time [hr] !Hourly
181,1,WESTDATACENTER_EQUIP,ITE Air Inlet Dry-Bulb Temperature Below Operating Range Time [hr] !Hourly
182,1,WESTDATACENTER_EQUIP,ITE Air Inlet Dewpoint Temperature Above Operating Range Time [hr] !Hourly
183,1,WESTDATACENTER_EQUIP,ITE Air Inlet Dewpoint Temperature Below Operating Range Time [hr] !Hourly
184,1,WESTDATACENTER_EQUIP,ITE Air Inlet Relative Humidity Above Operating Range Time [hr] !Hourly
185,1,WESTDATACENTER_EQUIP,ITE Air Inlet Relative Humidity Below Operating Range Time [hr] !Hourly
186,1,WESTDATACENTER_EQUIP,ITE Air Inlet Dry-Bulb Temperature Difference Above Operating Range [deltaC] !Hourly
187,1,WESTDATACENTER_EQUIP,ITE Air Inlet Dry-Bulb Temperature Difference Below Operating Range [deltaC] !Hourly
188,1,WESTDATACENTER_EQUIP,ITE Air Inlet Dewpoint Temperature Difference Above Operating Range [deltaC] !Hourly
189,1,WESTDATACENTER_EQUIP,ITE Air Inlet Dewpoint Temperature Difference Below Operating Range [deltaC] !Hourly
190,1,WESTDATACENTER_EQUIP,ITE Air Inlet Relative Humidity Difference Above Operating Range [%] !Hourly
191,1,WESTDATACENTER_EQUIP,ITE Air Inlet Relative Humidity Difference Below Operating Range [%] !Hourly
192,1,WEST ZONE,Zone ITE CPU Electric Power [W] !Hourly
193,1,WEST ZONE,Zone ITE Fan Electric Power [W] !Hourly
194,1,WEST ZONE,Zone ITE UPS Electric Power [W] !Hourly
195,1,WEST ZONE,Zone ITE CPU Electric Power at Design Inlet Conditions [W] !Hourly
196,1,WEST ZONE,Zone ITE Fan Electric Power at Design Inlet Conditions [W] !Hourly
197,1,WEST ZONE,Zone ITE UPS Heat Gain to Zone Rate [W] !Hourly
198,1,WEST ZONE,Zone ITE Total Heat Gain to Zone Rate [W] !Hourly
199,1,EASTDATACENTER_EQUIP,ITE CPU Electric Power [W] !Hourly
200,1,EASTDATACENTER_EQUIP,ITE Fan Electric Power [W] !Hourly
201,1,EASTDATACENTER_EQUIP,ITE UPS Electric Power [W] !Hourly
202,1,EASTDATACENTER_EQUIP,ITE CPU Electric Power at Design Inlet Conditions [W] !Hourly
203,1,EASTDATACENTER_EQUIP,ITE Fan Electric Power at Design Inlet Conditions [W] !Hourly
204,1,EASTDATACENTER_EQUIP,ITE UPS Heat Gain to Zone Rate [W] !Hourly
205,1,EASTDATACENTER_EQUIP,ITE Total Heat Gain to Zone Rate [W] !Hourly
209,1,EASTDATACENTER_EQUIP,ITE Standard Density Air Volume Flow Rate [m3/s] !Hourly
210,1,EASTDATACENTER_EQUIP,ITE Air Inlet Dry-Bulb Temperature [C] !Hourly
211,1,EASTDATACENTER_EQUIP,ITE Air Inlet Dewpoint Temperature [C] !Hourly
212,1,EASTDATACENTER_EQUIP,ITE Air Inlet Relative Humidity [%] !Hourly
213,1,EASTDATACENTER_EQUIP,ITE Air Outlet Dry-Bulb Temperature [C] !Hourly
214,1,EASTDATACENTER_EQUIP,ITE Supply Heat Index [] !Hourly
215,1,EASTDATACENTER_EQUIP,ITE Air Inlet Operating Range Exceeded Time [hr] !Hourly
216,1,EASTDATACENTER_EQUIP,ITE Air Inlet Dry-Bulb Temperature Above Operating Range Time [hr] !Hourly
217,1,EASTDATACENTER_EQUIP,ITE Air Inlet Dry-Bulb Temperature Below Operating Range Time [hr] !Hourly
218,1,EASTDATACENTER_EQUIP,ITE Air Inlet Dewpoint Temperature Above Operating Range Time [hr] !Hourly
219,1,EASTDATACENTER_EQUIP,ITE Air Inlet Dewpoint Temperature Below Operating Range Time [hr] !Hourly
220,1,EASTDATACENTER_EQUIP,ITE Air Inlet Relative Humidity Above Operating Range Time [hr] !Hourly
221,1,EASTDATACENTER_EQUIP,ITE Air Inlet Relative Humidity Below Operating Range Time [hr] !Hourly
222,1,EASTDATACENTER_EQUIP,ITE Air Inlet Dry-Bulb Temperature Difference Above Operating Range [deltaC] !Hourly
223,1,EASTDATACENTER_EQUIP,ITE Air Inlet Dry-Bulb Temperature Difference Below Operating Range [deltaC] !Hourly
224,1,EASTDATACENTER_EQUIP,ITE Air Inlet Dewpoint Temperature Difference Above Operating Range [deltaC] !Hourly
225,1,EASTDATACENTER_EQUIP,ITE Air Inlet Dewpoint Temperature Difference Below Operating Range [deltaC] !Hourly
226,1,EASTDATACENTER_EQUIP,ITE Air Inlet Relative Humidity Difference Above Operating Range [%] !Hourly
227,1,EASTDATACENTER_EQUIP,ITE Air Inlet Relative Humidity Difference Below Operating Range [%] !Hourly
228,1,EAST ZONE,Zone ITE CPU Electric Power [W] !Hourly
229,1,EAST ZONE,Zone ITE Fan Electric Power [W] !Hourly
230,1,EAST ZONE,Zone ITE UPS Electric Power [W] !Hourly
231,1,EAST ZONE,Zone ITE CPU Electric Power at Design Inlet Conditions [W] !Hourly
232,1,EAST ZONE,Zone ITE Fan Electric Power at Design Inlet Conditions [W] !Hourly
233,1,EAST ZONE,Zone ITE UPS Heat Gain to Zone Rate [W] !Hourly
234,1,EAST ZONE,Zone ITE Total Heat Gain to Zone Rate [W] !Hourly
239,1,EMS,Power Utilization Effectiveness [] !TimeStep
312,1,WEST ZONE,Zone Air Temperature [C] !TimeStep
313,1,WEST ZONE,Zone Air Relative Humidity [%] !TimeStep
314,1,WEST ZONE,Zone Thermostat Control Type [] !Hourly
315,1,WEST ZONE,Zone Thermostat Heating Setpoint Temperature [C] !Hourly
316,1,WEST ZONE,Zone Thermostat Cooling Setpoint Temperature [C] !Hourly
349,1,EAST ZONE,Zone Air Temperature [C] !TimeStep
350,1,EAST ZONE,Zone Air Relative Humidity [%] !TimeStep
351,1,EAST ZONE,Zone Thermostat Control Type [] !Hourly
352,1,EAST ZONE,Zone Thermostat Heating Setpoint Temperature [C] !Hourly
353,1,EAST ZONE,Zone Thermostat Cooling Setpoint Temperature [C] !Hourly
386,1,WEST PLENUM,Zone Thermostat Control Type [] !Hourly
387,1,WEST PLENUM,Zone Thermostat Heating Setpoint Temperature [C] !Hourly
388,1,WEST PLENUM,Zone Thermostat Cooling Setpoint Temperature [C] !Hourly
421,1,EAST PLENUM,Zone Thermostat Control Type [] !Hourly
422,1,EAST PLENUM,Zone Thermostat Heating Setpoint Temperature [C] !Hourly
423,1,EAST PLENUM,Zone Thermostat Cooling Setpoint Temperature [C] !Hourly
517,1,Whole Building,Facility Total Building Electric Demand Power [W] !Hourly
518,1,Whole Building,Facility Total HVAC Electric Demand Power [W] !Hourly
519,1,Whole Building,Facility Total Electric Demand Power [W] !Hourly
520,1,WEST ZONE,Zone Oscillating Temperatures Time [hr] !Hourly
521,1,EAST ZONE,Zone Oscillating Temperatures Time [hr] !Hourly
522,1,WEST PLENUM,Zone Oscillating Temperatures Time [hr] !Hourly
523,1,EAST PLENUM,Zone Oscillating Temperatures Time [hr] !Hourly
524,1,Facility,Facility Any Zone Oscillating Temperatures Time [hr] !Hourly
525,1,WEST ZONE,Zone Heating Setpoint Not Met Time [hr] !Hourly
526,1,WEST ZONE,Zone Heating Setpoint Not Met While Occupied Time [hr] !Hourly
527,1,WEST ZONE,Zone Cooling Setpoint Not Met Time [hr] !Hourly
528,1,WEST ZONE,Zone Cooling Setpoint Not Met While Occupied Time [hr] !Hourly
529,1,EAST ZONE,Zone Heating Setpoint Not Met Time [hr] !Hourly
530,1,EAST ZONE,Zone Heating Setpoint Not Met While Occupied Time [hr] !Hourly
531,1,EAST ZONE,Zone Cooling Setpoint Not Met Time [hr] !Hourly
532,1,EAST ZONE,Zone Cooling Setpoint Not Met While Occupied Time [hr] !Hourly
533,1,WEST PLENUM,Zone Heating Setpoint Not Met Time [hr] !Hourly
534,1,WEST PLENUM,Zone Heating Setpoint Not Met While Occupied Time [hr] !Hourly
535,1,WEST PLENUM,Zone Cooling Setpoint Not Met Time [hr] !Hourly
536,1,WEST PLENUM,Zone Cooling Setpoint Not Met While Occupied Time [hr] !Hourly
537,1,EAST PLENUM,Zone Heating Setpoint Not Met Time [hr] !Hourly
538,1,EAST PLENUM,Zone Heating Setpoint Not Met While Occupied Time [hr] !Hourly
539,1,EAST PLENUM,Zone Cooling Setpoint Not Met Time [hr] !Hourly
540,1,EAST PLENUM,Zone Cooling Setpoint Not Met While Occupied Time [hr] !Hourly
541,1,WEST ZONE VAV SYSTEM,Zone Air Terminal VAV Damper Position [] !Hourly
542,1,WEST ZONE VAV SYSTEM,Zone Air Terminal Minimum Air Flow Fraction [] !Hourly
543,1,WEST ZONE VAV SYSTEM,Zone Air Terminal Outdoor Air Volume Flow Rate [m3/s] !Hourly
544,1,EAST ZONE VAV SYSTEM,Zone Air Terminal VAV Damper Position [] !Hourly
545,1,EAST ZONE VAV SYSTEM,Zone Air Terminal Minimum Air Flow Fraction [] !Hourly
546,1,EAST ZONE VAV SYSTEM,Zone Air Terminal Outdoor Air Volume Flow Rate [m3/s] !Hourly
599,1,WEST ZONE CW COOLING COIL,Cooling Coil Total Cooling Rate [W] !TimeStep
600,1,WEST ZONE CW COOLING COIL,Cooling Coil Sensible Cooling Rate [W] !TimeStep
603,1,EAST ZONE CW COOLING COIL,Cooling Coil Total Cooling Rate [W] !TimeStep
604,1,EAST ZONE CW COOLING COIL,Cooling Coil Sensible Cooling Rate [W] !TimeStep
605,1,WEST ZONE SUPPLY FAN,Fan Electric Power [W] !Hourly
606,1,WEST ZONE SUPPLY FAN,Fan Rise in Air Temperature [deltaC] !Hourly
607,1,WEST ZONE SUPPLY FAN,Fan Heat Gain to Air [W] !Hourly
608,1,WEST ZONE SUPPLY FAN,Fan Electric Energy [J] !Hourly
639,1,WEST ZONE SUPPLY FAN,Fan Air Mass Flow Rate [kg/s] !Hourly
640,1,EAST ZONE SUPPLY FAN,Fan Electric Power [W] !Hourly
641,1,EAST ZONE SUPPLY FAN,Fan Rise in Air Temperature [deltaC] !Hourly
642,1,EAST ZONE SUPPLY FAN,Fan Heat Gain to Air [W] !Hourly
643,1,EAST ZONE SUPPLY FAN,Fan Electric Energy [J] !Hourly
644,1,EAST ZONE SUPPLY FAN,Fan Air Mass Flow Rate [kg/s] !Hourly
645,1,WEST DATA CENTER IEC,Evaporative Cooler Total Stage Effectiveness [] !TimeStep
646,1,WEST DATA CENTER IEC,Evaporative Cooler Operating Mode Status [] !TimeStep
647,1,EAST DATA CENTER IEC,Evaporative Cooler Total Stage Effectiveness [] !TimeStep
648,1,EAST DATA CENTER IEC,Evaporative Cooler Operating Mode Status [] !TimeStep
649,1,WEST DATA CENTER DEC,Evaporative Cooler Stage Effectiveness [] !TimeStep
650,1,EAST DATA CENTER DEC,Evaporative Cooler Stage Effectiveness [] !TimeStep
662,1,WEST DATA CENTER IEC,Evaporative Cooler Electric Power [W] !TimeStep
663,1,WEST DATA CENTER IEC,Evaporative Cooler Water Volume [m3] !TimeStep
726,1,EAST DATA CENTER IEC,Evaporative Cooler Electric Power [W] !TimeStep
727,1,EAST DATA CENTER IEC,Evaporative Cooler Water Volume [m3] !TimeStep
730,1,WEST DATA CENTER DEC,Evaporative Cooler Electric Power [W] !TimeStep
731,1,WEST DATA CENTER DEC,Evaporative Cooler Water Volume [m3] !TimeStep
734,1,EAST DATA CENTER DEC,Evaporative Cooler Electric Power [W] !TimeStep
735,1,EAST DATA CENTER DEC,Evaporative Cooler Water Volume [m3] !TimeStep
737,1,WEST DX COOLING COIL,Cooling Coil Total Cooling Rate [W] !TimeStep
739,1,WEST DX COOLING COIL,Cooling Coil Sensible Cooling Rate [W] !TimeStep
741,1,EAST DX COOLING COIL,Cooling Coil Total Cooling Rate [W] !TimeStep
743,1,EAST DX COOLING COIL,Cooling Coil Sensible Cooling Rate [W] !TimeStep
766,1,CHILLER,Chiller Evaporator Cooling Rate [W] !Hourly
788,1,CHILLER,Chiller Evaporator Inlet Temperature [C] !Hourly
789,1,CHILLER,Chiller Evaporator Outlet Temperature [C] !Hourly
790,1,CHILLER,Chiller Condenser Heat Transfer Rate [W] !Hourly
802,1,CHILLER,Chiller Condenser Inlet Temperature [C] !Hourly
803,1,CHILLER,Chiller Condenser Outlet Temperature [C] !Hourly
892,1,WEST ZONE INLET NODE,System Node Temperature [C] !TimeStep
893,1,WEST ZONE INLET NODE,System Node Mass Flow Rate [kg/s] !TimeStep
894,1,WEST OUTSIDE AIR INLET NODE,System Node Temperature [C] !TimeStep
895,1,WEST OUTSIDE AIR INLET NODE,System Node Mass Flow Rate [kg/s] !TimeStep
896,1,WEST IEC SECONDARY AIR INLET NODE,System Node Temperature [C] !TimeStep
897,1,WEST IEC SECONDARY AIR INLET NODE,System Node Mass Flow Rate [kg/s] !TimeStep
898,1,WEST ZONE DEC OUTLET NODE,System Node Temperature [C] !TimeStep
899,1,WEST ZONE DEC OUTLET NODE,System Node Setpoint Temperature [C] !TimeStep
900,1,WEST ZONE IEC OUTLET NODE,System Node Temperature [C] !TimeStep
901,1,WEST ZONE IEC OUTLET NODE,System Node Setpoint Temperature [C] !TimeStep
902,1,WEST ZONE CCOIL AIR OUTLET NODE,System Node Temperature [C] !TimeStep
903,1,WEST ZONE CCOIL AIR OUTLET NODE,System Node Setpoint Temperature [C] !TimeStep
904,1,WEST AIR LOOP OUTLET NODE,System Node Temperature [C] !TimeStep
905,1,WEST AIR LOOP OUTLET NODE,System Node Setpoint Temperature [C] !TimeStep
906,1,EAST ZONE INLET NODE,System Node Temperature [C] !TimeStep
907,1,EAST ZONE INLET NODE,System Node Mass Flow Rate [kg/s] !TimeStep
908,1,EAST OUTSIDE AIR INLET NODE,System Node Temperature [C] !TimeStep
909,1,EAST OUTSIDE AIR INLET NODE,System Node Mass Flow Rate [kg/s] !TimeStep
910,1,EAST IEC SECONDARY AIR INLET NODE,System Node Temperature [C] !TimeStep
911,1,EAST IEC SECONDARY AIR INLET NODE,System Node Mass Flow Rate [kg/s] !TimeStep
912,1,EAST ZONE DEC OUTLET NODE,System Node Temperature [C] !TimeStep
913,1,EAST ZONE DEC OUTLET NODE,System Node Setpoint Temperature [C] !TimeStep
914,1,EAST ZONE IEC OUTLET NODE,System Node Temperature [C] !TimeStep
915,1,EAST ZONE IEC OUTLET NODE,System Node Setpoint Temperature [C] !TimeStep
916,1,EAST ZONE CCOIL AIR OUTLET NODE,System Node Temperature [C] !TimeStep
917,1,EAST ZONE CCOIL AIR OUTLET NODE,System Node Setpoint Temperature [C] !TimeStep
918,1,EAST AIR LOOP OUTLET NODE,System Node Temperature [C] !TimeStep
919,1,EAST AIR LOOP OUTLET NODE,System Node Setpoint Temperature [C] !TimeStep
920,1,WEST ZONE RETURN AIR NODE,System Node Temperature [C] !TimeStep
921,1,WEST ZONE RETURN AIR NODE,System Node Mass Flow Rate [kg/s] !TimeStep
922,1,WEST ZONE MIXED AIR NODE,System Node Temperature [C] !TimeStep
923,1,WEST ZONE MIXED AIR NODE,System Node Mass Flow Rate [kg/s] !TimeStep
924,1,WEST ZONE SUPPLY FAN OUTLET NODE,System Node Temperature [C] !TimeStep
925,1,EAST ZONE SUPPLY FAN OUTLET NODE,System Node Temperature [C] !TimeStep
926,1,WEST IEC SECONDARY AIR OUTLET NODE,System Node Temperature [C] !TimeStep
927,1,WEST IEC SECONDARY AIR OUTLET NODE,System Node Mass Flow Rate [kg/s] !TimeStep
End of Data Dictionary
1,WHOLEYEARDAY,  37.62,-122.40,  -8.00,   2.00
2,1, 1, 1, 0, 1, 0.00,15.00,Tuesday
6,6.825
239,1.0300298866314462
312,22.444328992445255
313,31.71304646733757
349,23.891038456140814
350,27.24346708536687
599,0.0
600,0.0
603,0.0
604,0.0
645,0.19970276921635558
647,0.0
649,0.2333333333333333
650,0.6999999999999997
662,3.0659191988063565
663,0.0
726,0.0
727,0.0
730,10.0
731,0.0017842768348435863
734,0.0
735,0.0
737,0.0
739,0.0
741,0.0
743,0.0
892,13.215664868650494
893,1.9567608
894,6.825
895,1.1725625411360357
896,6.825
897,0.47758960726038787
898,11.784598883003432
899,12.914825133333333
900,10.516471666815117
901,12.914825133333333
902,10.516471666815117
903,12.914825133333333
904,10.516471666815117
905,12.914825133333333
906,22.033569719147605
907,6.685525182980723
908,6.825
909,0.0
910,6.825
911,0.0
912,23.98062270970309
913,38.918507933333348
914,23.98062270970309
915,38.918507933333348
916,23.98062270970309
917,38.918507933333348
918,23.98062270970309
919,38.918507933333348
920,22.492550082735066
921,1.9567608
922,12.997438416260057
923,1.9567608
924,13.431640179136375
925,23.98062270970309
926,9.396780018737191
927,0.47758960726038787
646,0.4666666666666666
648,0.0
2,1, 1, 1, 0, 1,15.00,30.00,Tuesday
6,6.95
239,1.0774432849251084
312,22.332184138295259
313,35.04196437965278
349,34.55293997563729
350,15.673715376933119
599,0.0
600,0.0
603,0.0
604,0.0
645,0.15658439150798512
647,0.0
649,0.2333333333333333
650,0.6999999999999997
662,5.023271925945892
663,0.0
726,0.0
727,0.0
730,9.246076879321525
731,0.001895984677276622
734,2.7535585846766468
735,0.004328677547654373
737,0.0
739,0.0
741,0.0
743,0.0
892,13.75904746712617
893,2.221313466666667
894,6.9499999999999979
895,1.2083422255181944
896,6.9499999999999979
897,0.43943405668539817
898,12.909956741069623
899,14.023043866666665
900,11.73250058874979
901,14.023043866666665
902,11.73250058874979
903,14.023043866666665
904,11.73250058874979
905,14.023043866666665
906,29.294072441979599
907,6.60242995197797
908,6.9499999999999979
909,0.2383544715519069
910,6.9499999999999979
911,0.0
912,31.619353196895444
913,36.2668308
914,31.619353196895444
915,36.2668308
916,31.619353196895444
917,36.2668308
918,31.619353196895444
919,36.2668308
920,22.30792032406244
921,2.221313466666667
922,14.087939621311954
923,2.221313466666667
924,14.482032997978964
925,32.817470638219237
926,8.991474485806185
927,0.43943405668539817
646,0.3333333333333333
648,0.0
2,1, 1, 1, 0, 1,30.00,45.00,Tuesday
6,7.075
239,1.0326084347222305
312,22.116148129852975
313,36.94161749025252
349,43.65165860307273
350,11.830005766450377
599,0.0
600,0.0
603,0.0
604,0.0
645,0.1847822709862202
647,0.011937703161868652
649,0.13999999999999999
650,0.6533333333333331
662,9.647110104647977
663,0.0
726,0.05072381523955622
727,0.0
730,6.0
731,0.0017075323118742584
734,3.9153407263863917
735,0.005937821273872931
737,0.0
739,0.0
741,0.0
743,0.0
892,12.906491731481328
893,2.509110466666667
894,7.075
895,1.602430631923016
896,7.075
897,0.6382315995614694
898,11.504799113008808
899,12.362230733333332
900,10.33237678755769
901,12.362230733333332
902,10.33237678755769
903,12.362230733333332
904,10.33237678755769
905,12.362230733333332
906,31.810816247524405
907,6.427625911652897
908,7.075
909,1.2137337934757815
910,7.075
911,0.040093740290414899
912,34.675919730413507
913,36.44111053333334
914,34.413274460471729
915,36.44111053333334
916,34.413274460471729
917,36.44111053333334
918,34.413274460471729
919,36.44111053333334
920,22.21319271630484
921,2.509110466666667
922,11.97182725440227
923,2.509110466666667
924,12.360602218216009
925,36.36026500423588
926,9.026259622292454
927,0.6382315995614694
646,0.39999999999999999
648,0.06666666666666667
2,1, 1, 1, 0, 1,45.00,60.00,Tuesday
6,7.2
239,1.0179506183815772
312,20.88590944020364
313,38.95409585114845
349,46.39000741620227
350,10.471296860609117
599,0.0
600,0.0
603,66.62102869546843
604,66.62102869547894
645,0.18396663132725347
647,0.022492787935291738
649,0.0875
650,0.175
662,2.9644666686999709
663,0.0
726,0.327372077133164
727,0.0
730,3.75
731,0.0008959101240081822
734,1.0771360128767154
735,0.001782877792676919
737,0.0
739,0.0
741,0.0
743,0.0
892,13.01598481272491
893,2.46702775
894,7.200000000000001
895,1.5433126028822999
896,7.200000000000001
897,0.5265462271214889
898,11.984727909563333
899,12.881523125
900,10.932468308670324
901,12.881523125
902,10.932468308670324
903,12.881523125
904,10.932468308670324
905,12.881523125
906,35.41835312738033
907,6.48331232560951
908,7.200000000000001
909,1.1442687851008893
910,7.200000000000001
911,0.11033659459988225
912,38.99262366381052
913,38.98207525
914,38.47868989896911
915,38.98207525
916,38.47868989896911
917,38.98207525
918,38.469314869919028
919,38.98207525
920,21.13051725315159
921,2.46702775
922,12.219386231375017
923,2.46702775
924,12.602800373626991
925,39.49511597154292
926,10.418580181751564
927,0.5265462271214889
646,0.625
648,0.125
2,1, 1, 1, 0, 1, 0.00,60.00,Tuesday
133,11251.063351193474
134,7533.682488189071
135,1878.4745839382538
136,13936.849545599995
137,10219.334400000002
138,1878.4745839382538
139,20663.220423320796
173,2.766374940472536
174,13.554594170540096
175,5.296842544265533
176,0.5749217179336306
177,21.63436329045326
178,0.10671230796453923
179,1.0
180,0.0
181,0.0
182,0.0
183,0.0
184,0.0
185,1.0
186,0.0
187,0.0
188,0.0
189,0.0
190,0.0
191,-19.42507828206637
192,11251.063351193474
193,7533.682488189071
194,1878.4745839382538
195,13936.849545599995
196,10219.334400000002
197,1878.4745839382538
198,20663.220423320796
199,39686.65491605553
200,35538.61348138148
201,7522.526839743699
202,15546.354479999996
203,11399.520000000002
204,7522.526839743699
205,82747.79523718072
209,12.302736097364602
210,26.646544253406995
211,5.428203062386256
212,0.28968927383307999
213,34.07564095055247
214,0.08807499747758732
215,1.0
216,0.25
217,0.0
218,0.0
219,0.0
220,0.0
221,1.0
222,0.10903394675002254
223,0.0
224,0.0
225,0.0
226,0.0
227,-19.71031072616692
228,39686.65491605553
229,35538.61348138148
230,7522.526839743699
231,15546.354479999996
232,11399.520000000002
233,7522.526839743699
234,82747.79523718072
315,20.0
316,23.0
352,20.0
353,23.0
387,0.0
388,0.0
422,0.0
423,0.0
525,0.0
526,0.0
527,0.0
528,0.0
529,0.0
530,0.0
531,1.0
532,0.0
533,0.0
534,0.0
535,0.0
536,0.0
537,0.0
538,0.0
539,0.0
540,0.0
314,4.0
351,4.0
386,0.0
421,0.0
517,103439.41566050152
518,3550.7804307988663
519,106990.19609130039
520,0.03125
521,0.0625
522,0.03125
523,0.04791666666666666
524,0.14166666666666667
541,0.3668669351699575
542,0.4
543,1.147537698602144
544,0.93714520638117
545,0.4
546,0.5391002997236585
605,980.9186354100873
606,0.40012106140226136
607,882.8267718690781
608,3531307.087476313
639,2.2885531208333336
640,2228.4254242988227
641,0.3002514587308921
642,2005.5828818689406
643,8022331.527475761
644,6.549723343055275
766,3.321057796822001
788,10.205245658166576
789,10.004769567064863
790,3.8020162551255005
802,9.936194132842616
803,9.936228774397052
2,1, 1, 1, 0, 2, 0.00,15.00,Tuesday
6,7.2
239,1.0271056522015243
312,20.898262654151478
313,38.3040338466271
349,48.0622603019232
350,9.592084933241982
599,0.0
600,0.0
603,7.332710510019026
604,7.332710510007557
645,0.0
647,0.03751474740686818
649,0.19999999999999994
650,0.29999999999999996
662,0.0
663,0.0
726,3.6453880008663299
727,0.0
730,0.0
731,0.0
734,0.5730189348387301
735,0.0010061856658661853
737,0.0
739,0.0
741,0.0
743,0.0
892,13.466265474847387
893,2.438094142857142
894,7.199999999999999
895,1.5588439140058446
896,7.199999999999999
897,0.0
898,12.572592026055025
899,14.74841928571428
900,12.572592026055025
901,14.74841928571428
902,12.572592026055025
903,14.74841928571428
904,12.572592026055025
905,14.74841928571428
906,35.60439957752942
907,6.734564295702483
908,7.199999999999999
909,1.5771125618200495
910,7.199999999999999
911,0.29518574864001559
912,38.055734713902797
913,38.41550228571428
914,36.82626055636095
915,38.41550228571428
916,36.82626055636095
917,38.41550228571428
918,36.825228873976559
919,38.41550228571428
920,20.78212494542213
921,2.438094142857142
922,12.198644177626447
923,2.438094142857142
924,12.572592026055025
925,38.31610553024558
926,7.199999999999999
927,0.0
646,0.0
648,0.14285714285714283
2,1, 1, 1, 0, 2,15.00,30.00,Tuesday
6,7.2
239,1.0193511729749734
312,24.14488212847447
313,32.252292108310587
349,46.53203741049027
350,11.088512549664369
599,0.0
600,0.0
603,0.0
604,0.0
645,0.14552711594259239
647,0.04645358450260047
649,0.18666666666666674
650,0.5133333333333332
662,4.434693621781522
663,0.0
726,4.710964719206499
727,0.0
730,6.0
731,0.001439449183271407
734,2.97244347128479
735,0.003726439207110329
737,0.0
739,0.0
741,0.0
743,0.0
892,13.006494184225409
893,2.226702133333334
894,7.200000000000003
895,1.4517385611968328
896,7.200000000000003
897,0.4480787634068402
898,11.940837917026542
899,12.882813733333335
900,11.130080801075256
901,12.882813733333335
902,11.130080801075256
903,12.882813733333335
904,11.130080801075256
905,12.882813733333335
906,32.254824600960329
907,6.435959844986231
908,7.200000000000003
909,1.798838275333199
910,7.200000000000003
911,0.3233546774714564
912,34.68553639740304
913,35.869192733333338
914,33.3384234868192
915,35.869192733333338
916,33.3384234868192
917,35.869192733333338
918,33.3384234868192
919,35.869192733333338
920,23.878121567565655
921,2.226702133333334
922,12.48095908192798
923,2.226702133333334
924,12.882817584150338
925,35.935742107044649
926,8.910966977095399
927,0.4480787634068402
646,0.39999999999999999
648,0.2
2,1, 1, 1, 0, 2,30.00,45.00,Tuesday
6,7.2
239,1.0219415607040093
312,22.15110174838944
313,36.41375738957187
349,45.21747143945267
350,11.279526445281264
599,0.0
600,0.0
603,4.938282574862297
604,4.938282574866627