Program Version,EnergyPlus, Version 8.8.0-Unknown, YMD=2019.07.16 14:17
1,5,Environment Title[],Latitude[deg],Longitude[deg],Time Zone[],Elevation[m]
2,6,Day of Simulation[],Month[],Day of Month[],DST Indicator[1=yes 0=no],Hour[],StartMinute[],EndMinute[],DayType
3,3,Cumulative Day of Simulation[],Month[],Day of Month[],DST Indicator[1=yes 0=no],DayType  ! When Daily Report Variables Requested
4,2,Cumulative Days of Simulation[],Month[]  ! When Monthly Report Variables Requested
5,1,Cumulative Days of Simulation[] ! When Run Period Report Variables Requested
6,1,Environment,Site Outdoor Air Drybulb Temperature [C] !TimeStep
133,1,WESTDATACENTER_EQUIP,ITE CPU Electric Power [W] !Hourly
134,1,WESTDATACENTER_EQUIP,ITE Fan Electric Power [W] !Hourly
135,1,WESTDATACENTER_EQUIP,ITE UPS Electric Power [W] !Hourly
136,1,WESTDATACENTER_EQUIP,ITE CPU Electric Power at Design Inlet Conditions [W] !Hourly
137,1,WESTDATACENTER_EQUIP,ITE Fan Electric Power at Design Inlet Conditions [W] !Hourly
138,1,WESTDATACENTER_EQUIP,ITE UPS Heat Gain to Zone Rate [W] !Hourly
139,1,WESTDATACENTER_EQUIP,ITE Total Heat Gain to Zone Rate [W] !Hourly
173,1,WESTDATACENTER_EQUIP,ITE Standard Density Air Volume Flow Rate [m3/s] !Hourly
174,1,WESTDATACENTER_EQUIP,ITE Air Inlet Dry-Bulb Temperature [C] !Hourly
175,1,WESTDATACENTER_EQUIP,ITE Air Inlet Dewpoint Temperature [C] !Hourly
176,1,WESTDATACENTER_EQUIP,ITE Air Inlet Relative Humidity [%] !Hourly
177,1,WESTDATACENTER_EQUIP,ITE Air Outlet Dry-Bulb Temperature [C] !Hourly
178,1,WESTDATACENTER_EQUIP,ITE Supply Heat Index [] !Hourly
179,1,WESTDATACENTER_EQUIP,ITE Air Inlet Operating Range Exceeded Time [hr] !Hourly
180,1,WESTDATACENTER_EQUIP,ITE Air Inlet Dry-Bulb Temperature Above Operating Range Time [hr] !Hourly
181,1,WESTDATACENTER_EQUIP,ITE Air Inlet Dry-Bulb Temperature Below Operating Range Time [hr] !Hourly
182,1,WESTDATACENTER_EQUIP,ITE Air Inlet Dewpoint Temperature Above Operating Range Time [hr] !Hourly
183,1,WESTDATACENTER_EQUIP,ITE Air Inlet Dewpoint Temperature Below Operating Range Time [hr] !Hourly
184,1,WESTDATACENTER_EQUIP,ITE Air Inlet Relative Humidity Above Operating Range Time [hr] !Hourly
185,1,WESTDATACENTER_EQUIP,ITE Air Inlet Relative Humidity Below Operating Range Time [hr] !Hourly
186,1,WESTDATACENTER_EQUIP,ITE Air Inlet Dry-Bulb Temperature Difference Above Operating Range [deltaC] !Hourly
187,1,WESTDATACENTER_EQUIP,ITE Air Inlet Dry-Bulb Temperature Difference Below Operating Range [deltaC] !Hourly
188,1,WESTDATACENTER_EQUIP,ITE Air Inlet Dewpoint Temperature Difference Above Operating Range [deltaC] !Hourly
189,1,WESTDATACENTER_EQUIP,ITE Air Inlet Dewpoint Temperature Difference Below Operating Range [deltaC] !Hourly
190,1,WESTDATACENTER_EQUIP,ITE Air Inlet Relative Humidity Difference Above Operating Range [%] !Hourly
191,1,WESTDATACENTER_EQUIP,ITE Air Inlet Relative Humidity Difference Below Operating Range [%] !Hourly
192,1,WEST ZONE,Zone ITE CPU Electric Power [W] !Hourly
193,1,WEST ZONE,Zone ITE Fan Electric Power [W] !Hourly
194,1,WEST ZONE,Zone ITE UPS Electric Power [W] !Hourly
195,1,WEST ZONE,Zone ITE CPU Electric Power at Design Inlet Conditions [W] !Hourly
196,1,WEST ZONE,Zone ITE Fan Electric Power at Design Inlet Conditions [W] !Hourly
197,1,WEST ZONE,Zone ITE UPS Heat Gain to Zone Rate [W] !Hourly
198,1,WEST ZONE,Zone ITE Total Heat Gain to Zone Rate [W] !Hourly
199,1,EASTDATACENTER_EQUIP,ITE CPU Electric Power [W] !Hourly
200,1,EASTDATACENTER_EQUIP,ITE Fan Electric Power [W] !Hourly
201,1,EASTDATACENTER_EQUIP,ITE UPS Electric Power [W] !Hourly
202,1,EASTDATACENTER_EQUIP,ITE CPU Electric Power at Design Inlet Conditions [W] !Hourly
203,1,EASTDATACENTER_EQUIP,ITE Fan Electric Power at Design Inlet Conditions [W] !Hourly
204,1,EASTDATACENTER_EQUIP,ITE UPS Heat Gain to Zone Rate [W] !Hourly
205,1,EASTDATACENTER_EQUIP,ITE Total Heat Gain to Zone Rate [W] !Hourly
209,1,EASTDATACENTER_EQUIP,ITE Standard Density Air Volume Flow Rate [m3/s] !Hourly
210,1,EASTDATACENTER_EQUIP,ITE Air Inlet Dry-Bulb Temperature [C] !Hourly
211,1,EASTDATACENTER_EQUIP,ITE Air Inlet Dewpoint Temperature [C] !Hourly
212,1,EASTDATACENTER_EQUIP,ITE Air Inlet Relative Humidity [%] !Hourly
213,1,EASTDATACENTER_EQUIP,ITE Air Outlet Dry-Bulb Temperature [C] !Hourly
214,1,EASTDATACENTER_EQUIP,ITE Supply Heat Index [] !Hourly
215,1,EASTDATACENTER_EQUIP,ITE Air Inlet Operating Range Exceeded Time [hr] !Hourly
216,1,EASTDATACENTER_EQUIP,ITE Air Inlet Dry-Bulb Temperature Above Operating Range Time [hr] !Hourly
217,1,EASTDATACENTER_EQUIP,ITE Air Inlet Dry-Bulb Temperature Below Operating Range Time [hr] !Hourly
218,1,EASTDATACENTER_EQUIP,ITE Air Inlet Dewpoint Temperature Above Operating Range Time [hr] !Hourly
219,1,EASTDATACENTER_EQUIP,ITE Air Inlet Dewpoint Temperature Below Operating Range Time [hr] !Hourly
220,1,EASTDATACENTER_EQUIP,ITE Air Inlet Relative Humidity Above Operating Range Time [hr] !Hourly
221,1,EASTDATACENTER_EQUIP,ITE Air Inlet Relative Humidity Below Operating Range Time [hr] !Hourly
222,1,EASTDATACENTER_EQUIP,ITE Air Inlet Dry-Bulb Temperature Difference Above Operating Range [deltaC] !Hourly
223,1,EASTDATACENTER_EQUIP,ITE Air Inlet Dry-Bulb Temperature Difference Below Operating Range [deltaC] !Hourly
224,1,EASTDATACENTER_EQUIP,ITE Air Inlet Dewpoint Temperature Difference Above Operating Range [deltaC] !Hourly
225,1,EASTDATACENTER_EQUIP,ITE Air Inlet Dewpoint Temperature Difference Below Operating Range [deltaC] !Hourly
226,1,EASTDATACENTER_EQUIP,ITE Air Inlet Relative Humidity Difference Above Operating Range [%] !Hourly
227,1,EASTDATACENTER_EQUIP,ITE Air Inlet Relative Humidity Difference Below Operating Range [%] !Hourly
228,1,EAST ZONE,Zone ITE CPU Electric Power [W] !Hourly
229,1,EAST ZONE,Zone ITE Fan Electric Power [W] !Hourly
230,1,EAST ZONE,Zone ITE UPS Electric Power [W] !Hourly
231,1,EAST ZONE,Zone ITE CPU Electric Power at Design Inlet Conditions [W] !Hourly
232,1,EAST ZONE,Zone ITE Fan Electric Power at Design Inlet Conditions [W] !Hourly
233,1,EAST ZONE,Zone ITE UPS Heat Gain to Zone Rate [W] !Hourly
234,1,EAST ZONE,Zone ITE Total Heat Gain to Zone Rate [W] !Hourly
239,1,EMS,Power Utilization Effectiveness [] !TimeStep
312,1,WEST ZONE,Zone Air Temperature [C] !TimeStep
313,1,WEST ZONE,Zone Air Relative Humidity [%] !TimeStep
314,1,WEST ZONE,Zone Thermostat Control Type [] !Hourly
315,1,WEST ZONE,Zone Thermostat Heating Setpoint Temperature [C] !Hourly
316,1,WEST ZONE,Zone Thermostat Cooling Setpoint Temperature [C] !Hourly
349,1,EAST ZONE,Zone Air Temperature [C] !TimeStep
350,1,EAST ZONE,Zone Air Relative Humidity [%] !TimeStep
351,1,EAST ZONE,Zone Thermostat Control Type [] !Hourly
352,1,EAST ZONE,Zone Thermostat Heating Setpoint Temperature [C] !Hourly
353,1,EAST ZONE,Zone Thermostat Cooling Setpoint Temperature [C] !Hourly
386,1,WEST PLENUM,Zone Thermostat Control Type [] !Hourly
387,1,WEST PLENUM,Zone Thermostat Heating Setpoint Temperature [C] !Hourly
388,1,WEST PLENUM,Zone Thermostat Cooling Setpoint Temperature [C] !Hourly
421,1,EAST PLENUM,Zone Thermostat Control Type [] !Hourly
422,1,EAST PLENUM,Zone Thermostat Heating Setpoint Temperature [C] !Hourly
423,1,EAST PLENUM,Zone Thermostat Cooling Setpoint Temperature [C] !Hourly
517,1,Whole Building,Facility Total Building Electric Demand Power [W] !Hourly
518,1,Whole Building,Facility Total HVAC Electric Demand Power [W] !Hourly
519,1,Whole Building,Facility Total Electric Demand Power [W] !Hourly
520,1,WEST ZONE,Zone Oscillating Temperatures Time [hr] !Hourly
521,1,EAST ZONE,Zone Oscillating Temperatures Time [hr] !Hourly
522,1,WEST PLENUM,Zone Oscillating Temperatures Time [hr] !Hourly
523,1,EAST PLENUM,Zone Oscillating Temperatures Time [hr] !Hourly
524,1,Facility,Facility Any Zone Oscillating Temperatures Time [hr] !Hourly
525,1,WEST ZONE,Zone Heating Setpoint Not Met Time [hr] !Hourly
526,1,WEST ZONE,Zone Heating Setpoint Not Met While Occupied Time [hr] !Hourly
527,1,WEST ZONE,Zone Cooling Setpoint Not Met Time [hr] !Hourly
528,1,WEST ZONE,Zone Cooling Setpoint Not Met While Occupied Time [hr] !Hourly
529,1,EAST ZONE,Zone Heating Setpoint Not Met Time [hr] !Hourly
530,1,EAST ZONE,Zone Heating Setpoint Not Met While Occupied Time [hr] !Hourly
531,1,EAST ZONE,Zone Cooling Setpoint Not Met Time [hr] !Hourly
532,1,EAST ZONE,Zone Cooling Setpoint Not Met While Occupied Time [hr] !Hourly
533,1,WEST PLENUM,Zone Heating Setpoint Not Met Time [hr] !Hourly
534,1,WEST PLENUM,Zone Heating Setpoint Not Met While Occupied Time [hr] !Hourly
535,1,WEST PLENUM,Zone Cooling Setpoint Not Met Time [hr] !Hourly
536,1,WEST PLENUM,Zone Cooling Setpoint Not Met While Occupied Time [hr] !Hourly
537,1,EAST PLENUM,Zone Heating Setpoint Not Met Time [hr] !Hourly
538,1,EAST PLENUM,Zone Heating Setpoint Not Met While Occupied Time [hr] !Hourly
539,1,EAST PLENUM,Zone Cooling Setpoint Not Met Time [hr] !Hourly
540,1,EAST PLENUM,Zone Cooling Setpoint Not Met While Occupied Time [hr] !Hourly
541,1,WEST ZONE VAV SYSTEM,Zone Air Terminal VAV Damper Position [] !Hourly
542,1,WEST ZONE VAV SYSTEM,Zone Air Terminal Minimum Air Flow Fraction [] !Hourly
543,1,WEST ZONE VAV SYSTEM,Zone Air Terminal Outdoor Air Volume Flow Rate [m3/s] !Hourly
544,1,EAST ZONE VAV SYSTEM,Zone Air Terminal VAV Damper Position [] !Hourly
545,1,EAST ZONE VAV SYSTEM,Zone Air Terminal Minimum Air Flow Fraction [] !Hourly
546,1,EAST ZONE VAV SYSTEM,Zone Air Terminal Outdoor Air Volume Flow Rate [m3/s] !Hourly
599,1,WEST ZONE CW COOLING COIL,Cooling Coil Total Cooling Rate [W] !TimeStep
600,1,WEST ZONE CW COOLING COIL,Cooling Coil Sensible Cooling Rate [W] !TimeStep
603,1,EAST ZONE CW COOLING COIL,Cooling Coil Total Cooling Rate [W] !TimeStep
604,1,EAST ZONE CW COOLING COIL,Cooling Coil Sensible Cooling Rate [W] !TimeStep
605,1,WEST ZONE SUPPLY FAN,Fan Electric Power [W] !Hourly
606,1,WEST ZONE SUPPLY FAN,Fan Rise in Air Temperature [deltaC] !Hourly
607,1,WEST ZONE SUPPLY FAN,Fan Heat Gain to Air [W] !Hourly
608,1,WEST ZONE SUPPLY FAN,Fan Electric Energy [J] !Hourly
639,1,WEST ZONE SUPPLY FAN,Fan Air Mass Flow Rate [kg/s] !Hourly
640,1,EAST ZONE SUPPLY FAN,Fan Electric Power [W] !Hourly
641,1,EAST ZONE SUPPLY FAN,Fan Rise in Air Temperature [deltaC] !Hourly
642,1,EAST ZONE SUPPLY FAN,Fan Heat Gain to Air [W] !Hourly
643,1,EAST ZONE SUPPLY FAN,Fan Electric Energy [J] !Hourly
644,1,EAST ZONE SUPPLY FAN,Fan Air Mass Flow Rate [kg/s] !Hourly
645,1,WEST DATA CENTER IEC,Evaporative Cooler Total Stage Effectiveness [] !TimeStep
646,1,WEST DATA CENTER IEC,Evaporative Cooler Operating Mode Status [] !TimeStep
647,1,EAST DATA CENTER IEC,Evaporative Cooler Total Stage Effectiveness [] !TimeStep
648,1,EAST DATA CENTER IEC,Evaporative Cooler Operating Mode Status [] !TimeStep
649,1,WEST DATA CENTER DEC,Evaporative Cooler Stage Effectiveness [] !TimeStep
650,1,EAST DATA CENTER DEC,Evaporative Cooler Stage Effectiveness [] !TimeStep
662,1,WEST DATA CENTER IEC,Evaporative Cooler Electric Power [W] !TimeStep
663,1,WEST DATA CENTER IEC,Evaporative Cooler Water Volume [m3] !TimeStep
726,1,EAST DATA CENTER IEC,Evaporative Cooler Electric Power [W] !TimeStep
727,1,EAST DATA CENTER IEC,Evaporative Cooler Water Volume [m3] !TimeStep
730,1,WEST DATA CENTER DEC,Evaporative Cooler Electric Power [W] !TimeStep
731,1,WEST DATA CENTER DEC,Evaporative Cooler Water Volume [m3] !TimeStep
734,1,EAST DATA CENTER DEC,Evaporative Cooler Electric Power [W] !TimeStep
735,1,EAST DATA CENTER DEC,Evaporative Cooler Water Volume [m3] !TimeStep
737,1,WEST DX COOLING COIL,Cooling Coil Total Cooling Rate [W] !TimeStep
739,1,WEST DX COOLING COIL,Cooling Coil Sensible Cooling Rate [W] !TimeStep
741,1,EAST DX COOLING COIL,Cooling Coil Total Cooling Rate [W] !TimeStep
743,1,EAST DX COOLING COIL,Cooling Coil Sensible Cooling Rate [W] !TimeStep
766,1,CHILLER,Chiller Evaporator Cooling Rate [W] !Hourly
788,1,CHILLER,Chiller Evaporator Inlet Temperature [C] !Hourly
789,1,CHILLER,Chiller Evaporator Outlet Temperature [C] !Hourly
790,1,CHILLER,Chiller Condenser Heat Transfer Rate [W] !Hourly
802,1,CHILLER,Chiller Condenser Inlet Temperature [C] !Hourly
803,1,CHILLER,Chiller Condenser Outlet Temperature [C] !Hourly
892,1,WEST ZONE INLET NODE,System Node Temperature [C] !TimeStep
893,1,WEST ZONE INLET NODE,System Node Mass Flow Rate [kg/s] !TimeStep
894,1,WEST OUTSIDE AIR INLET NODE,System Node Temperature [C] !TimeStep
895,1,WEST OUTSIDE AIR INLET NODE,System Node Mass Flow Rate [kg/s] !TimeStep
896,1,WEST IEC SECONDARY AIR INLET NODE,System Node Temperature [C] !TimeStep
897,1,WEST IEC SECONDARY AIR INLET NODE,System Node Mass Flow Rate [kg/s] !TimeStep
898,1,WEST ZONE DEC OUTLET NODE,System Node Temperature [C] !TimeStep
899,1,WEST ZONE DEC OUTLET NODE,System Node Setpoint Temperature [C] !TimeStep
900,1,WEST ZONE IEC OUTLET NODE,System Node Temperature [C] !TimeStep
901,1,WEST ZONE IEC OUTLET NODE,System Node Setpoint Temperature [C] !TimeStep
902,1,WEST ZONE CCOIL AIR OUTLET NODE,System Node Temperature [C] !TimeStep
903,1,WEST ZONE CCOIL AIR OUTLET NODE,System Node Setpoint Temperature [C] !TimeStep
904,1,WEST AIR LOOP OUTLET NODE,System Node Temperature [C] !TimeStep
905,1,WEST AIR LOOP OUTLET NODE,System Node Setpoint Temperature [C] !TimeStep
906,1,EAST ZONE INLET NODE,System Node Temperature [C] !TimeStep
907,1,EAST ZONE INLET NODE,System Node Mass Flow Rate [kg/s] !TimeStep
908,1,EAST OUTSIDE AIR INLET NODE,System Node Temperature [C] !TimeStep
909,1,EAST OUTSIDE AIR INLET NODE,System Node Mass Flow Rate [kg/s] !TimeStep
910,1,EAST IEC SECONDARY AIR INLET NODE,System Node Temperature [C] !TimeStep
911,1,EAST IEC SECONDARY AIR INLET NODE,System Node Mass Flow Rate [kg/s] !TimeStep
912,1,EAST ZONE DEC OUTLET NODE,System Node Temperature [C] !TimeStep
913,1,EAST ZONE DEC OUTLET NODE,System Node Setpoint Temperature [C] !TimeStep
914,1,EAST ZONE IEC OUTLET NODE,System Node Temperature [C] !TimeStep
915,1,EAST ZONE IEC OUTLET NODE,System Node Setpoint Temperature [C] !TimeStep
916,1,EAST ZONE CCOIL AIR OUTLET NODE,System Node Temperature [C] !TimeStep
917,1,EAST ZONE CCOIL AIR OUTLET NODE,System Node Setpoint Temperature [C] !TimeStep
918,1,EAST AIR LOOP OUTLET NODE,System Node Temperature [C] !TimeStep
919,1,EAST AIR LOOP OUTLET NODE,System Node Setpoint Temperature [C] !TimeStep
920,1,WEST ZONE RETURN AIR NODE,System Node Temperature [C] !TimeStep
921,1,WEST ZONE RETURN AIR NODE,System Node Mass Flow Rate [kg/s] !TimeStep
922,1,WEST ZONE MIXED AIR NODE,System Node Temperature [C] !TimeStep
923,1,WEST ZONE MIXED AIR NODE,System Node Mass Flow Rate [kg/s] !TimeStep
924,1,WEST ZONE SUPPLY FAN OUTLET NODE,System Node Temperature [C] !TimeStep
925,1,EAST ZONE SUPPLY FAN OUTLET NODE,System Node Temperature [C] !TimeStep
926,1,WEST IEC SECONDARY AIR OUTLET NODE,System Node Temperature [C] !TimeStep
927,1,WEST IEC SECONDARY AIR OUTLET NODE,System Node Mass Flow Rate [kg/s] !TimeStep
End of Data Dictionary
1,WHOLEYEARDAY,  37.62,-122.40,  -8.00,   2.00
2,1, 1, 1, 0, 1, 0.00,15.00,Tuesday
6,6.825
239,1.0300298866314462
312,21.86165355302492
313,33.30778498509319
349,24.094333961801547
350,26.918531246863446
599,0.0
600,0.0
603,0.0
604,0.0
645,0.08097588210914139
647,0.0
649,0.41999999999999995
650,0.6999999999999997
662,9.469361794899877
663,0.0
726,0.0
727,0.0
730,7.677617908981003
731,0.0035689842959942686
734,0.0
735,0.0
737,0.0
739,0.0
741,0.0
743,0.0
892,15.971277453915887
893,3.4084779333333334
894,6.825
895,0.8678128197284911
896,6.825
897,0.3848372864068401
898,16.3011051944741
899,22.1695638
900,15.589915876155086
901,22.1695638
902,15.589915876155086
903,22.1695638
904,15.589915876155086
905,22.1695638
906,22.062778868542588
907,5.476362413983478
908,6.825
909,0.0
910,6.825
911,0.0
912,24.186600640484646
913,38.26856453333333
914,24.186600640484646
915,38.26856453333333
916,24.186600640484646
917,38.26856453333333
918,24.186600640484646
919,38.26856453333333
920,21.97387426857702
921,3.4084779333333334
922,17.614995606112559
923,3.4084779333333334
924,17.962239542882885
925,24.186600640484646
926,8.344391829266402
927,0.3848372864068401
646,0.2
648,0.0
2,1, 1, 1, 0, 1,15.00,30.00,Tuesday
6,6.95
239,1.1044496097165469
312,26.665319038244488
313,29.345418439441496
349,35.00652333445584
350,15.691198347906628
599,0.0
600,0.0
603,0.0
604,0.0
645,0.05698821389037705
647,0.0
649,0.6066666666666665
650,0.6999999999999997
662,96.71288674070468
663,0.0
726,0.0
727,0.0
730,7.884766572298474
731,0.004023935009831269
734,2.99700402054205
735,0.003389245775912004
737,2623.358396799522
739,251.5323450308561
741,0.0
743,0.0
892,18.33384885410746
893,3.27604008950559
894,6.9499999999999979
895,0.7075341849021009
896,6.9499999999999979
897,0.6163439284960067
898,19.858714066607118
899,26.07337546666667
900,19.194786361716007
901,26.07337546666667
902,19.155216737618749
903,26.07337546666667
904,19.155216737618749
905,26.07337546666667
906,29.16678361260246
907,6.019186044986231
908,6.9499999999999979
909,0.3054738729139998
910,6.9499999999999979
911,0.0
912,31.554512405529914
913,37.31744746666667
914,31.554512405529914
915,37.31744746666667
916,31.554512405529914
917,37.31744746666667
918,31.554512405529914
919,37.31744746666667
920,26.30187968689602
921,3.27604008950559
922,21.31478682891827
923,3.27604008950559
924,21.67991743157996
925,32.7669598590591
926,8.098693302161863
927,0.6163439284960067
646,0.13333333333333334
648,0.0
2,1, 1, 1, 0, 1,30.00,45.00,Tuesday
6,7.075
239,1.0286370480447578
312,29.249963566916905
313,27.56418358560479
349,43.91095146844676
350,11.627255614940076
599,0.0
600,0.0
603,3.9818726765521248
604,3.981872676555405
645,0.15907118726993589
647,0.01805593692824173
649,0.46666666666666659
650,0.46666666666666659
662,121.62688006453965
663,0.0
726,0.014974210254393227
727,0.0
730,10.763419858518965
731,0.004426995209909489
734,2.356815047983159
735,0.003496797307515412
737,929.8464414444284
739,94.63995852500811
741,0.0
743,0.0
892,15.676425985707852
893,3.1534729333333337
894,7.075
895,1.5299668931999536
896,7.075
897,1.2222714727566669
898,16.62440531651194
899,21.369880466666666
900,14.959678728411996
901,21.369880466666666
902,14.906607782196156
903,21.369880466666666
904,14.906607782196156
905,21.369880466666666
906,33.460772805769298
907,5.991625351977969
908,7.075
909,0.8339908206516625
910,7.075
911,0.04472560737004672
912,37.13373992726923
913,38.55565
914,36.803160972859959
915,38.55565
916,36.803160972859959
917,38.55565
918,36.80260048785327
919,38.55565
920,29.124955368285133
921,3.1534729333333337
922,18.721408254731857
923,3.1534729333333337
924,19.093974236655265
925,38.24354620596192
926,8.762299029070775
927,1.2222714727566669
646,0.26666666666666669
648,0.2
2,1, 1, 1, 0, 1,45.00,60.00,Tuesday
6,7.2
239,1.0207065876397188
312,23.43940163339548
313,40.458105263387427
349,49.80645771415753
350,8.668951730876238
599,0.0
600,0.0
603,62.08059505333841
604,62.08059505335161
645,0.18158657149146857
647,0.01337343306220291
649,0.3733333333333333
650,0.41999999999999995
662,115.54937474419242
663,0.0
726,0.2135361920809779
727,0.0
730,11.29114659865894
731,0.004500860367768885
734,0.9613178701938367
735,0.00059961589108824
737,0.0
739,0.0
741,0.0
743,0.0
892,14.367338577316789
893,4.093093491355692
894,7.200000000000003
895,1.7323480596270194
896,7.200000000000003
897,1.344718905549016
898,14.612876877078375
899,17.215267266666666
900,12.910488059121873
901,17.215267266666666
902,12.910488059121873
903,17.215267266666666
904,12.910488059121873
905,17.215267266666666
906,35.06474036957852
907,5.275772040325072
908,7.200000000000003
909,1.2686871013450652
910,7.200000000000003
911,0.06312287454078265
912,38.660539875389968
913,39.113855
914,38.22232077468829
915,39.113855
916,38.22232077468829
917,39.113855
918,38.21246558750962
919,39.113855
920,23.905796327114247
921,4.093093491355692
922,16.278408652140887
923,4.093093491355692
924,16.60534707116141
925,39.11444994095708
926,9.116286255071737
927,1.344718905549016
646,0.3333333333333333
648,0.06666666666666667
2,1, 1, 1, 0, 1, 0.00,60.00,Tuesday
133,17726.128390436443
134,14008.423790366936
135,3173.4552180803375
136,13936.849545599995
137,10219.334400000002
138,3173.4552180803375
139,34908.00739888372
173,5.0502189665734449
174,17.039270937940747
175,7.498563227847676
176,0.5402802469124435
177,24.62026211182643
178,0.10162245932101828
179,1.0
180,0.0
181,0.0
182,0.0
183,0.0
184,0.0
185,1.0
186,0.0
187,0.0
188,0.0
189,0.0
190,0.0
191,-19.45971975308756
192,17726.128390436443
193,14008.423790366936
194,3173.4552180803375
195,13936.849545599995
196,10219.334400000002
197,3173.4552180803375
198,34908.00739888372
199,40603.757806034046
200,36455.67051850813
201,7705.942832454215
202,15546.354479999996
203,11399.520000000002
204,7705.942832454215
205,84765.37115699638
209,12.580150483146504
210,27.089002681849295
211,6.120730753757416
212,0.2938846787005144
213,34.52296221591321
214,0.08422510616661475
215,1.0
216,0.25
217,0.0
218,0.0
219,0.0
220,0.0
221,1.0
222,0.5967708785897532
223,0.0
224,0.0
225,0.0
226,0.0
227,-19.706115321299487
228,40603.757806034046
229,36455.67051850813
230,7705.942832454215
231,15546.354479999996
232,11399.520000000002
233,7705.942832454215
234,84765.37115699638
315,20.0
316,23.0
352,20.0
353,23.0
387,0.0
388,0.0
422,0.0
423,0.0
525,0.0
526,0.0
527,0.75
528,0.0
529,0.0
530,0.0
531,1.0
532,0.0
533,0.0
534,0.0
535,0.0
536,0.0
537,0.0
538,0.0
539,0.0
540,0.0
314,4.0
351,4.0
386,0.0
421,0.0
517,119701.77855588013
518,4267.035415988496
519,123968.81397186862
520,0.0
521,0.016666666666666668
522,0.03333333333333333
523,0.016666666666666668
524,0.06666666666666667
541,0.5583062731134484
542,0.4
543,1.0044785678063655
544,0.8142399484038165
545,0.4
546,0.5000218881113241
605,1273.351803927425
606,0.3529697350939877
607,1146.0166235346824
608,4584066.49413873
639,3.482771111881987
640,1940.148821369658
641,0.3057945997499731
642,1746.1339392326922
643,6984535.756930767
644,5.690736462818188
766,3.1313372575054236
788,10.205331337008254
789,9.777687896759805
790,3.5848526568268825
802,9.93597654442134
803,9.936009207507143
2,1, 1, 1, 0, 2, 0.00,15.00,Tuesday
6,7.2
239,1.0543796432788529
312,21.225870627870639
313,45.946431065613158
349,49.9432410296343
350,8.635396498386476
599,0.0
600,0.0
603,30.31513904648181
604,30.315139046481869
645,0.16930066820393456
647,0.026255169394311666
649,0.2333333333333333
650,0.46666666666666659
662,15.46339190851436
663,0.0
726,4.6214649447165059
727,0.0
730,8.6388760578093
731,0.002478074317999475
734,1.1637133214238243
735,0.0010143019944678588
737,0.0
739,0.0
741,0.0
743,0.0
892,13.265180080482614
893,3.13114048950559
894,7.200000000000003
895,1.7306577192754734
896,7.200000000000003
897,0.5744771905174699
898,13.137729907986279
899,16.629142066666668
900,12.109910488379754
901,16.629142066666668
902,12.109910488379754
903,16.629142066666668
904,12.109910488379754
905,16.629142066666668
906,34.417183090098649
907,5.461130978319564
908,7.200000000000003
909,1.4697458199912526
910,7.200000000000003
911,0.20330437484280104
912,38.096763127650799
913,38.64089393333333
914,37.266398129015907
915,38.64089393333333
916,37.266398129015907
917,38.64089393333333
918,37.26196761725886
919,38.64089393333333
920,21.33181085680048
921,3.13114048950559
922,14.124479962434418
923,3.13114048950559
924,14.506221565892288
925,38.64282345025197
926,10.50289995614631
927,0.5744771905174699
646,0.5333333333333333
648,0.13333333333333334
2,1, 1, 1, 0, 2,15.00,30.00,Tuesday
6,7.2
239,1.0245030942818594
312,22.702243391503889
313,40.66436139180057
349,50.52975534161512
350,8.615763992903123
599,0.0
600,0.0
603,42.49365126719374
604,42.493651267186617
645,0.23136317506349253
647,0.03347501918192647
649,0.27999999999999999
650,0.41999999999999995
662,218.94476964862177
663,0.0
726,1.617324249643107
727,0.0
730,9.908014200628803
731,0.003009054739652781
734,2.0714835886949416
735,0.0037290302024266819
737,0.0
739,0.0
741,0.0
743,0.0
892,12.72856718299163
893,3.3133611561722566
894,7.200000000000003
895,1.8394193272358784
896,7.200000000000003
897,1.8233674941875902
898,13.297852766671714
899,16.253442399999999
900,11.327875551089403
901,16.253442399999999
902,11.327875551089403
903,16.253442399999999
904,11.327875551089403
905,16.253442399999999
906,33.776594018424237
907,5.972518316314057
908,7.200000000000003
909,1.7766943645496514
910,7.200000000000003
911,0.19312112484135414
912,37.174063424250878
913,38.135149
914,36.30386331072752
915,38.135149
916,36.30386331072752
917,38.135149
918,36.29684014991405
919,38.135149
920,22.64412154800004
921,3.3133611561722566
922,14.674985189239296
923,3.3133611561722566
924,15.017655069719208