Program Version,EnergyPlus, Version 8.8.0-Unknown, YMD=2019.07.16 14:22
1,5,Environment Title[],Latitude[deg],Longitude[deg],Time Zone[],Elevation[m]
2,6,Day of Simulation[],Month[],Day of Month[],DST Indicator[1=yes 0=no],Hour[],StartMinute[],EndMinute[],DayType
3,3,Cumulative Day of Simulation[],Month[],Day of Month[],DST Indicator[1=yes 0=no],DayType  ! When Daily Report Variables Requested
4,2,Cumulative Days of Simulation[],Month[]  ! When Monthly Report Variables Requested
5,1,Cumulative Days of Simulation[] ! When Run Period Report Variables Requested
6,1,Environment,Site Outdoor Air Drybulb Temperature [C] !TimeStep
133,1,WESTDATACENTER_EQUIP,ITE CPU Electric Power [W] !Hourly
134,1,WESTDATACENTER_EQUIP,ITE Fan Electric Power [W] !Hourly
135,1,WESTDATACENTER_EQUIP,ITE UPS Electric Power [W] !Hourly
136,1,WESTDATACENTER_EQUIP,ITE CPU Electric Power at Design Inlet Conditions [W] !Hourly
137,1,WESTDATACENTER_EQUIP,ITE Fan Electric Power at Design Inlet Conditions [W] !Hourly
138,1,WESTDATACENTER_EQUIP,ITE UPS Heat Gain to Zone Rate [W] !Hourly
139,1,WESTDATACENTER_EQUIP,ITE Total Heat Gain to Zone Rate [W] !Hourly
173,1,WESTDATACENTER_EQUIP,ITE Standard Density Air Volume Flow Rate [m3/s] !Hourly
174,1,WESTDATACENTER_EQUIP,ITE Air Inlet Dry-Bulb Temperature [C] !Hourly
175,1,WESTDATACENTER_EQUIP,ITE Air Inlet Dewpoint Temperature [C] !Hourly
176,1,WESTDATACENTER_EQUIP,ITE Air Inlet Relative Humidity [%] !Hourly
177,1,WESTDATACENTER_EQUIP,ITE Air Outlet Dry-Bulb Temperature [C] !Hourly
178,1,WESTDATACENTER_EQUIP,ITE Supply Heat Index [] !Hourly
179,1,WESTDATACENTER_EQUIP,ITE Air Inlet Operating Range Exceeded Time [hr] !Hourly
180,1,WESTDATACENTER_EQUIP,ITE Air Inlet Dry-Bulb Temperature Above Operating Range Time [hr] !Hourly
181,1,WESTDATACENTER_EQUIP,ITE Air Inlet Dry-Bulb Temperature Below Operating Range Time [hr] !Hourly
182,1,WESTDATACENTER_EQUIP,ITE Air Inlet Dewpoint Temperature Above Operating Range Time [hr] !Hourly
183,1,WESTDATACENTER_EQUIP,ITE Air Inlet Dewpoint Temperature Below Operating Range Time [hr] !Hourly
184,1,WESTDATACENTER_EQUIP,ITE Air Inlet Relative Humidity Above Operating Range Time [hr] !Hourly
185,1,WESTDATACENTER_EQUIP,ITE Air Inlet Relative Humidity Below Operating Range Time [hr] !Hourly
186,1,WESTDATACENTER_EQUIP,ITE Air Inlet Dry-Bulb Temperature Difference Above Operating Range [deltaC] !Hourly
187,1,WESTDATACENTER_EQUIP,ITE Air Inlet Dry-Bulb Temperature Difference Below Operating Range [deltaC] !Hourly
188,1,WESTDATACENTER_EQUIP,ITE Air Inlet Dewpoint Temperature Difference Above Operating Range [deltaC] !Hourly
189,1,WESTDATACENTER_EQUIP,ITE Air Inlet Dewpoint Temperature Difference Below Operating Range [deltaC] !Hourly
190,1,WESTDATACENTER_EQUIP,ITE Air Inlet Relative Humidity Difference Above Operating Range [%] !Hourly
191,1,WESTDATACENTER_EQUIP,ITE Air Inlet Relative Humidity Difference Below Operating Range [%] !Hourly
192,1,WEST ZONE,Zone ITE CPU Electric Power [W] !Hourly
193,1,WEST ZONE,Zone ITE Fan Electric Power [W] !Hourly
194,1,WEST ZONE,Zone ITE UPS Electric Power [W] !Hourly
195,1,WEST ZONE,Zone ITE CPU Electric Power at Design Inlet Conditions [W] !Hourly
196,1,WEST ZONE,Zone ITE Fan Electric Power at Design Inlet Conditions [W] !Hourly
197,1,WEST ZONE,Zone ITE UPS Heat Gain to Zone Rate [W] !Hourly
198,1,WEST ZONE,Zone ITE Total Heat Gain to Zone Rate [W] !Hourly
199,1,EASTDATACENTER_EQUIP,ITE CPU Electric Power [W] !Hourly
200,1,EASTDATACENTER_EQUIP,ITE Fan Electric Power [W] !Hourly
201,1,EASTDATACENTER_EQUIP,ITE UPS Electric Power [W] !Hourly
202,1,EASTDATACENTER_EQUIP,ITE CPU Electric Power at Design Inlet Conditions [W] !Hourly
203,1,EASTDATACENTER_EQUIP,ITE Fan Electric Power at Design Inlet Conditions [W] !Hourly
204,1,EASTDATACENTER_EQUIP,ITE UPS Heat Gain to Zone Rate [W] !Hourly
205,1,EASTDATACENTER_EQUIP,ITE Total Heat Gain to Zone Rate [W] !Hourly
209,1,EASTDATACENTER_EQUIP,ITE Standard Density Air Volume Flow Rate [m3/s] !Hourly
210,1,EASTDATACENTER_EQUIP,ITE Air Inlet Dry-Bulb Temperature [C] !Hourly
211,1,EASTDATACENTER_EQUIP,ITE Air Inlet Dewpoint Temperature [C] !Hourly
212,1,EASTDATACENTER_EQUIP,ITE Air Inlet Relative Humidity [%] !Hourly
213,1,EASTDATACENTER_EQUIP,ITE Air Outlet Dry-Bulb Temperature [C] !Hourly
214,1,EASTDATACENTER_EQUIP,ITE Supply Heat Index [] !Hourly
215,1,EASTDATACENTER_EQUIP,ITE Air Inlet Operating Range Exceeded Time [hr] !Hourly
216,1,EASTDATACENTER_EQUIP,ITE Air Inlet Dry-Bulb Temperature Above Operating Range Time [hr] !Hourly
217,1,EASTDATACENTER_EQUIP,ITE Air Inlet Dry-Bulb Temperature Below Operating Range Time [hr] !Hourly
218,1,EASTDATACENTER_EQUIP,ITE Air Inlet Dewpoint Temperature Above Operating Range Time [hr] !Hourly
219,1,EASTDATACENTER_EQUIP,ITE Air Inlet Dewpoint Temperature Below Operating Range Time [hr] !Hourly
220,1,EASTDATACENTER_EQUIP,ITE Air Inlet Relative Humidity Above Operating Range Time [hr] !Hourly
221,1,EASTDATACENTER_EQUIP,ITE Air Inlet Relative Humidity Below Operating Range Time [hr] !Hourly
222,1,EASTDATACENTER_EQUIP,ITE Air Inlet Dry-Bulb Temperature Difference Above Operating Range [deltaC] !Hourly
223,1,EASTDATACENTER_EQUIP,ITE Air Inlet Dry-Bulb Temperature Difference Below Operating Range [deltaC] !Hourly
224,1,EASTDATACENTER_EQUIP,ITE Air Inlet Dewpoint Temperature Difference Above Operating Range [deltaC] !Hourly
225,1,EASTDATACENTER_EQUIP,ITE Air Inlet Dewpoint Temperature Difference Below Operating Range [deltaC] !Hourly
226,1,EASTDATACENTER_EQUIP,ITE Air Inlet Relative Humidity Difference Above Operating Range [%] !Hourly
227,1,EASTDATACENTER_EQUIP,ITE Air Inlet Relative Humidity Difference Below Operating Range [%] !Hourly
228,1,EAST ZONE,Zone ITE CPU Electric Power [W] !Hourly
229,1,EAST ZONE,Zone ITE Fan Electric Power [W] !Hourly
230,1,EAST ZONE,Zone ITE UPS Electric Power [W] !Hourly
231,1,EAST ZONE,Zone ITE CPU Electric Power at Design Inlet Conditions [W] !Hourly
232,1,EAST ZONE,Zone ITE Fan Electric Power at Design Inlet Conditions [W] !Hourly
233,1,EAST ZONE,Zone ITE UPS Heat Gain to Zone Rate [W] !Hourly
234,1,EAST ZONE,Zone ITE Total Heat Gain to Zone Rate [W] !Hourly
239,1,EMS,Power Utilization Effectiveness [] !TimeStep
312,1,WEST ZONE,Zone Air Temperature [C] !TimeStep
313,1,WEST ZONE,Zone Air Relative Humidity [%] !TimeStep
314,1,WEST ZONE,Zone Thermostat Control Type [] !Hourly
315,1,WEST ZONE,Zone Thermostat Heating Setpoint Temperature [C] !Hourly
316,1,WEST ZONE,Zone Thermostat Cooling Setpoint Temperature [C] !Hourly
349,1,EAST ZONE,Zone Air Temperature [C] !TimeStep
350,1,EAST ZONE,Zone Air Relative Humidity [%] !TimeStep
351,1,EAST ZONE,Zone Thermostat Control Type [] !Hourly
352,1,EAST ZONE,Zone Thermostat Heating Setpoint Temperature [C] !Hourly
353,1,EAST ZONE,Zone Thermostat Cooling Setpoint Temperature [C] !Hourly
386,1,WEST PLENUM,Zone Thermostat Control Type [] !Hourly
387,1,WEST PLENUM,Zone Thermostat Heating Setpoint Temperature [C] !Hourly
388,1,WEST PLENUM,Zone Thermostat Cooling Setpoint Temperature [C] !Hourly
421,1,EAST PLENUM,Zone Thermostat Control Type [] !Hourly
422,1,EAST PLENUM,Zone Thermostat Heating Setpoint Temperature [C] !Hourly
423,1,EAST PLENUM,Zone Thermostat Cooling Setpoint Temperature [C] !Hourly
517,1,Whole Building,Facility Total Building Electric Demand Power [W] !Hourly
518,1,Whole Building,Facility Total HVAC Electric Demand Power [W] !Hourly
519,1,Whole Building,Facility Total Electric Demand Power [W] !Hourly
520,1,WEST ZONE,Zone Oscillating Temperatures Time [hr] !Hourly
521,1,EAST ZONE,Zone Oscillating Temperatures Time [hr] !Hourly
522,1,WEST PLENUM,Zone Oscillating Temperatures Time [hr] !Hourly
523,1,EAST PLENUM,Zone Oscillating Temperatures Time [hr] !Hourly
524,1,Facility,Facility Any Zone Oscillating Temperatures Time [hr] !Hourly
525,1,WEST ZONE,Zone Heating Setpoint Not Met Time [hr] !Hourly
526,1,WEST ZONE,Zone Heating Setpoint Not Met While Occupied Time [hr] !Hourly
527,1,WEST ZONE,Zone Cooling Setpoint Not Met Time [hr] !Hourly
528,1,WEST ZONE,Zone Cooling Setpoint Not Met While Occupied Time [hr] !Hourly
529,1,EAST ZONE,Zone Heating Setpoint Not Met Time [hr] !Hourly
530,1,EAST ZONE,Zone Heating Setpoint Not Met While Occupied Time [hr] !Hourly
531,1,EAST ZONE,Zone Cooling Setpoint Not Met Time [hr] !Hourly
532,1,EAST ZONE,Zone Cooling Setpoint Not Met While Occupied Time [hr] !Hourly
533,1,WEST PLENUM,Zone Heating Setpoint Not Met Time [hr] !Hourly
534,1,WEST PLENUM,Zone Heating Setpoint Not Met While Occupied Time [hr] !Hourly
535,1,WEST PLENUM,Zone Cooling Setpoint Not Met Time [hr] !Hourly
536,1,WEST PLENUM,Zone Cooling Setpoint Not Met While Occupied Time [hr] !Hourly
537,1,EAST PLENUM,Zone Heating Setpoint Not Met Time [hr] !Hourly
538,1,EAST PLENUM,Zone Heating Setpoint Not Met While Occupied Time [hr] !Hourly
539,1,EAST PLENUM,Zone Cooling Setpoint Not Met Time [hr] !Hourly
540,1,EAST PLENUM,Zone Cooling Setpoint Not Met While Occupied Time [hr] !Hourly
541,1,WEST ZONE VAV SYSTEM,Zone Air Terminal VAV Damper Position [] !Hourly
542,1,WEST ZONE VAV SYSTEM,Zone Air Terminal Minimum Air Flow Fraction [] !Hourly
543,1,WEST ZONE VAV SYSTEM,Zone Air Terminal Outdoor Air Volume Flow Rate [m3/s] !Hourly
544,1,EAST ZONE VAV SYSTEM,Zone Air Terminal VAV Damper Position [] !Hourly
545,1,EAST ZONE VAV SYSTEM,Zone Air Terminal Minimum Air Flow Fraction [] !Hourly
546,1,EAST ZONE VAV SYSTEM,Zone Air Terminal Outdoor Air Volume Flow Rate [m3/s] !Hourly
599,1,WEST ZONE CW COOLING COIL,Cooling Coil Total Cooling Rate [W] !TimeStep
600,1,WEST ZONE CW COOLING COIL,Cooling Coil Sensible Cooling Rate [W] !TimeStep
603,1,EAST ZONE CW COOLING COIL,Cooling Coil Total Cooling Rate [W] !TimeStep
604,1,EAST ZONE CW COOLING COIL,Cooling Coil Sensible Cooling Rate [W] !TimeStep
605,1,WEST ZONE SUPPLY FAN,Fan Electric Power [W] !Hourly
606,1,WEST ZONE SUPPLY FAN,Fan Rise in Air Temperature [deltaC] !Hourly
607,1,WEST ZONE SUPPLY FAN,Fan Heat Gain to Air [W] !Hourly
608,1,WEST ZONE SUPPLY FAN,Fan Electric Energy [J] !Hourly
639,1,WEST ZONE SUPPLY FAN,Fan Air Mass Flow Rate [kg/s] !Hourly
640,1,EAST ZONE SUPPLY FAN,Fan Electric Power [W] !Hourly
641,1,EAST ZONE SUPPLY FAN,Fan Rise in Air Temperature [deltaC] !Hourly
642,1,EAST ZONE SUPPLY FAN,Fan Heat Gain to Air [W] !Hourly
643,1,EAST ZONE SUPPLY FAN,Fan Electric Energy [J] !Hourly
644,1,EAST ZONE SUPPLY FAN,Fan Air Mass Flow Rate [kg/s] !Hourly
645,1,WEST DATA CENTER IEC,Evaporative Cooler Total Stage Effectiveness [] !TimeStep
646,1,WEST DATA CENTER IEC,Evaporative Cooler Operating Mode Status [] !TimeStep
647,1,EAST DATA CENTER IEC,Evaporative Cooler Total Stage Effectiveness [] !TimeStep
648,1,EAST DATA CENTER IEC,Evaporative Cooler Operating Mode Status [] !TimeStep
649,1,WEST DATA CENTER DEC,Evaporative Cooler Stage Effectiveness [] !TimeStep
650,1,EAST DATA CENTER DEC,Evaporative Cooler Stage Effectiveness [] !TimeStep
662,1,WEST DATA CENTER IEC,Evaporative Cooler Electric Power [W] !TimeStep
663,1,WEST DATA CENTER IEC,Evaporative Cooler Water Volume [m3] !TimeStep
726,1,EAST DATA CENTER IEC,Evaporative Cooler Electric Power [W] !TimeStep
727,1,EAST DATA CENTER IEC,Evaporative Cooler Water Volume [m3] !TimeStep
730,1,WEST DATA CENTER DEC,Evaporative Cooler Electric Power [W] !TimeStep
731,1,WEST DATA CENTER DEC,Evaporative Cooler Water Volume [m3] !TimeStep
734,1,EAST DATA CENTER DEC,Evaporative Cooler Electric Power [W] !TimeStep
735,1,EAST DATA CENTER DEC,Evaporative Cooler Water Volume [m3] !TimeStep
737,1,WEST DX COOLING COIL,Cooling Coil Total Cooling Rate [W] !TimeStep
739,1,WEST DX COOLING COIL,Cooling Coil Sensible Cooling Rate [W] !TimeStep
741,1,EAST DX COOLING COIL,Cooling Coil Total Cooling Rate [W] !TimeStep
743,1,EAST DX COOLING COIL,Cooling Coil Sensible Cooling Rate [W] !TimeStep
766,1,CHILLER,Chiller Evaporator Cooling Rate [W] !Hourly
788,1,CHILLER,Chiller Evaporator Inlet Temperature [C] !Hourly
789,1,CHILLER,Chiller Evaporator Outlet Temperature [C] !Hourly
790,1,CHILLER,Chiller Condenser Heat Transfer Rate [W] !Hourly
802,1,CHILLER,Chiller Condenser Inlet Temperature [C] !Hourly
803,1,CHILLER,Chiller Condenser Outlet Temperature [C] !Hourly
892,1,WEST ZONE INLET NODE,System Node Temperature [C] !TimeStep
893,1,WEST ZONE INLET NODE,System Node Mass Flow Rate [kg/s] !TimeStep
894,1,WEST OUTSIDE AIR INLET NODE,System Node Temperature [C] !TimeStep
895,1,WEST OUTSIDE AIR INLET NODE,System Node Mass Flow Rate [kg/s] !TimeStep
896,1,WEST IEC SECONDARY AIR INLET NODE,System Node Temperature [C] !TimeStep
897,1,WEST IEC SECONDARY AIR INLET NODE,System Node Mass Flow Rate [kg/s] !TimeStep
898,1,WEST ZONE DEC OUTLET NODE,System Node Temperature [C] !TimeStep
899,1,WEST ZONE DEC OUTLET NODE,System Node Setpoint Temperature [C] !TimeStep
900,1,WEST ZONE IEC OUTLET NODE,System Node Temperature [C] !TimeStep
901,1,WEST ZONE IEC OUTLET NODE,System Node Setpoint Temperature [C] !TimeStep
902,1,WEST ZONE CCOIL AIR OUTLET NODE,System Node Temperature [C] !TimeStep
903,1,WEST ZONE CCOIL AIR OUTLET NODE,System Node Setpoint Temperature [C] !TimeStep
904,1,WEST AIR LOOP OUTLET NODE,System Node Temperature [C] !TimeStep
905,1,WEST AIR LOOP OUTLET NODE,System Node Setpoint Temperature [C] !TimeStep
906,1,EAST ZONE INLET NODE,System Node Temperature [C] !TimeStep
907,1,EAST ZONE INLET NODE,System Node Mass Flow Rate [kg/s] !TimeStep
908,1,EAST OUTSIDE AIR INLET NODE,System Node Temperature [C] !TimeStep
909,1,EAST OUTSIDE AIR INLET NODE,System Node Mass Flow Rate [kg/s] !TimeStep
910,1,EAST IEC SECONDARY AIR INLET NODE,System Node Temperature [C] !TimeStep
911,1,EAST IEC SECONDARY AIR INLET NODE,System Node Mass Flow Rate [kg/s] !TimeStep
912,1,EAST ZONE DEC OUTLET NODE,System Node Temperature [C] !TimeStep
913,1,EAST ZONE DEC OUTLET NODE,System Node Setpoint Temperature [C] !TimeStep
914,1,EAST ZONE IEC OUTLET NODE,System Node Temperature [C] !TimeStep
915,1,EAST ZONE IEC OUTLET NODE,System Node Setpoint Temperature [C] !TimeStep
916,1,EAST ZONE CCOIL AIR OUTLET NODE,System Node Temperature [C] !TimeStep
917,1,EAST ZONE CCOIL AIR OUTLET NODE,System Node Setpoint Temperature [C] !TimeStep
918,1,EAST AIR LOOP OUTLET NODE,System Node Temperature [C] !TimeStep
919,1,EAST AIR LOOP OUTLET NODE,System Node Setpoint Temperature [C] !TimeStep
920,1,WEST ZONE RETURN AIR NODE,System Node Temperature [C] !TimeStep
921,1,WEST ZONE RETURN AIR NODE,System Node Mass Flow Rate [kg/s] !TimeStep
922,1,WEST ZONE MIXED AIR NODE,System Node Temperature [C] !TimeStep
923,1,WEST ZONE MIXED AIR NODE,System Node Mass Flow Rate [kg/s] !TimeStep
924,1,WEST ZONE SUPPLY FAN OUTLET NODE,System Node Temperature [C] !TimeStep
925,1,EAST ZONE SUPPLY FAN OUTLET NODE,System Node Temperature [C] !TimeStep
926,1,WEST IEC SECONDARY AIR OUTLET NODE,System Node Temperature [C] !TimeStep
927,1,WEST IEC SECONDARY AIR OUTLET NODE,System Node Mass Flow Rate [kg/s] !TimeStep
End of Data Dictionary
1,WHOLEYEARDAY,  37.62,-122.40,  -8.00,   2.00
2,1, 1, 1, 0, 1, 0.00,15.00,Tuesday
6,6.825
239,1.0300298866314462
312,20.792747004250125
313,34.57241654924842
349,22.89152591910403
350,30.930719348411388
599,0.0
600,0.0
603,0.0
604,0.0
645,0.14373466156265425
647,0.036179167390456869
649,0.13999999999999999
650,0.6066666666666665
662,3.9672145844261119
663,0.0
726,4.474295527818376
727,0.0
730,4.0
731,0.0009986383752615463
734,4.683136586495286
735,0.004284542304422812
737,0.0
739,0.0
741,0.0
743,0.0
892,12.839781720397644
893,2.9747753333333337
894,6.825
895,1.925107586608024
896,6.825
897,0.47061240898952419
898,11.908645882653536
899,14.285751133333334
900,10.97606703750421
901,14.285751133333334
902,10.97606703750421
903,14.285751133333334
904,10.97606703750421
905,14.285751133333334
906,19.117178003701658
907,6.157302854308549
908,6.825
909,0.5586704956538539
910,6.825
911,0.26558709320173837
912,20.711284487928049
913,33.50519346666667
914,20.390372620823095
915,33.50519346666667
916,20.390372620823095
917,33.50519346666667
918,20.390372620823095
919,33.50519346666667
920,21.030125237655065
921,2.9747753333333337
922,12.40766458003904
923,2.9747753333333337
924,12.762601104226056
925,21.82359156494866
926,8.889301730644038
927,0.47061240898952419
646,0.39999999999999999
648,0.13333333333333334
2,1, 1, 1, 0, 1,15.00,30.00,Tuesday
6,6.95
239,1.08518248058375
312,20.28351691918475
313,38.16212713666927
349,23.89613468293338
350,32.15580263096335
599,0.0
600,0.0
603,0.0
604,0.0
645,0.16317247156468543
647,0.06902984733511691
649,0.4500000000000005
650,0.6000000000000006
662,8.323784552285606
663,0.0
726,49.277493915141558
727,0.0
730,9.66104916884622
731,0.002348480481109161
734,5.94652102094427
735,0.004483016177669144
737,0.0
739,0.0
741,0.0
743,0.0
892,15.040288421974314
893,2.8275391428571474
894,6.950000000000009
895,0.8095330372977099
896,6.950000000000009
897,0.5439004373473216
898,14.86543733085783
899,20.919474642857176
900,13.78362512385477
901,20.919474642857176
902,13.78362512385477
903,20.919474642857176
904,13.78362512385477
905,20.919474642857176
906,19.959441560767656
907,6.490315377119264
908,6.950000000000009
909,0.9324638458575473
910,6.950000000000009
911,0.5960545046724262
912,20.578667018255357
913,31.06875057142862
914,19.853736860515118
915,31.06875057142862
916,19.853736860515118
917,31.06875057142862
918,19.853736860515118
919,31.06875057142862
920,20.26622994093218
921,2.8275391428571474
922,16.15593046039237
923,2.8275391428571474
924,16.518017984257097
925,22.00349969986734
926,8.827823242271866
927,0.5439004373473216
646,0.35714285714285767
648,0.14285714285714308
2,1, 1, 1, 0, 1,30.00,45.00,Tuesday
6,7.075
239,1.0706716795807286
312,24.67262835132942
313,31.798335830378375
349,25.067917999660425
350,30.313596881690996
599,0.0
600,0.0
603,0.0
604,0.0
645,0.21112528059249664
647,0.0
649,0.32666666666666668
650,0.6999999999999997
662,104.2940770052003
663,0.0
726,0.0
727,0.0
730,10.131746280826084
731,0.003014848816050643
734,1.0315201484668944
735,0.0010692382577779634
737,582.8002880786321
739,46.5322953795292
741,0.0
743,0.0
892,14.037591306165235
893,2.40861668950559
894,7.075
895,1.1964330962994288
896,7.075
897,1.1963930630374489
898,13.775650126385058
899,16.1941378
900,12.15203105930998
901,16.1941378
902,12.125937291456115
903,16.1941378
904,12.125937291456115
905,16.1941378
906,23.817496969441899
907,6.360141587641882
908,7.075
909,0.10059214125321159
910,7.075
911,0.0
912,24.65271397899902
913,33.90070153333334
914,24.65271397899902
915,33.90070153333334
916,24.65271397899902
917,33.90070153333334
918,24.65271397899902
919,33.90070153333334
920,24.113300637402284
921,2.40861668950559
922,15.232615591413435
923,2.40861668950559
924,15.638917753103709
925,24.929981523919805
926,9.111464880913733
927,1.1963930630374489
646,0.4666666666666666
648,0.0
2,1, 1, 1, 0, 1,45.00,60.00,Tuesday
6,7.2
239,1.0571934390127283
312,24.84370495598085
313,32.874089500462968
349,33.33800160929056
350,20.20921318885403
599,0.0
600,0.0
603,0.0
604,0.0
645,0.2745005887214965
647,0.0
649,0.24999999999999954
650,0.6999999999999989
662,107.60440927812316
663,0.0
726,0.0
727,0.0
730,8.571428571428556
731,0.0017220068421067749
734,2.2475775898972119
735,0.002564450199840999
737,488.11265353525286
739,25.332010008057705
741,0.0
743,0.0
892,13.620715340331932
893,1.8404821428571397
894,7.199999999999987
895,1.1036736964272072
896,7.199999999999987
897,1.164063834149901
898,13.1303235722851
899,14.052476142857119
900,10.901643629220074
901,14.052476142857119
902,10.887438277558019
903,14.052476142857119
904,10.887438277558019
905,14.052476142857119
906,29.116461001883768
907,6.429305948547814
908,7.199999999999987
909,0.15528221999643808
910,7.199999999999987
911,0.0
912,31.328750038482608
913,36.63392507142851
914,31.328750038482608
915,36.63392507142851
916,31.328750038482608
917,36.63392507142851
918,31.328750038482608
919,36.63392507142851
920,24.82950418133454
921,1.8404821428571397
922,14.460867664383871
923,1.8404821428571397
924,14.911013616452135
925,32.13202367764632
926,9.849993056370615
927,1.164063834149901
646,0.5714285714285704
648,0.0
2,1, 1, 1, 0, 1, 0.00,60.00,Tuesday
133,13480.013334940777
134,9762.521030009284
135,2324.2534364950056
136,13936.849545599995
137,10219.334400000002
138,2324.2534364950056
139,25566.787801445065
173,3.5563699573992619
174,14.75414509041323
175,5.6460366021086829
176,0.5474352733025396
177,22.708152275069958
178,0.10084659173392308
179,1.0
180,0.0
181,0.0
182,0.0
183,0.0
184,0.0
185,1.0
186,0.0
187,0.0
188,0.0
189,0.0
190,0.0
191,-19.45256472669746
192,13480.013334940777
193,9762.521030009284
194,2324.2534364950056
195,13936.849545599995
196,10219.334400000002
197,2324.2534364950056
198,25566.787801445065
199,17285.48096397664
200,13138.559532000047
201,3042.404049597668
202,15546.354479999996
203,11399.520000000002
204,3042.404049597668
205,33466.44454557435
209,4.728609634363657
210,15.839045628763337
211,7.120444472004683
212,0.5835886802564937
213,23.83751185726369
214,0.08812081597040172
215,1.0
216,0.0
217,0.0
218,0.0
219,0.0
220,0.0
221,1.0
222,0.0
223,0.0
224,0.0
225,0.0
226,0.0
227,-19.416411319743508
228,17285.48096397664
229,13138.559532000047
230,3042.404049597668
231,15546.354479999996
232,11399.520000000002
233,3042.404049597668
234,33466.44454557435
315,20.0
316,23.0
352,20.0
353,23.0
387,0.0
388,0.0
422,0.0
423,0.0
525,0.0
526,0.0
527,0.5
528,0.0
529,0.0
530,0.0
531,0.5
532,0.0
533,0.0
534,0.0
535,0.0
536,0.0
537,0.0
538,0.0
539,0.0
540,0.0
314,4.0
351,4.0
386,0.0
421,0.0
517,59061.632347019404
518,3389.040885117609
519,62450.67323213699
520,0.0
521,0.0
522,0.06904761904761905
523,0.05238095238095238
524,0.10357142857142857
541,0.4028234216049892
542,0.39999999999999999
543,1.0454008400751394
544,0.9098943191929309
545,0.39999999999999999
546,0.36274398978818475
605,1032.8416913806918
606,0.39336804045256876
607,929.5575222426228
608,3718230.088970491
639,2.5128533271383026
640,2189.675360527684
641,0.30431819559149955
642,1970.7078244749157
643,7882831.297899662
644,6.359266441904378
766,0.0
788,10.204275065416635
789,10.204275065416635
790,0.0
802,9.9330585773976
803,9.9330585773976
2,1, 1, 1, 0, 2, 0.00,15.00,Tuesday
6,7.2
239,1.027208072511692
312,22.909515335320156
313,39.583528889031317
349,42.54806786097916
350,13.188198308083221
599,0.0
600,0.0
603,41.91412746509629
604,41.91412746508773
645,0.22347987482394378
647,0.02056512159964649
649,0.27999999999999999
650,0.3733333333333333
662,132.86507838587424
663,0.0
726,0.0316805519523526
727,0.0
730,10.0
731,0.0033463555167761247
734,2.3934016937908457
735,0.0031365187779358665
737,0.0
739,0.0
741,0.0
743,0.0
892,13.924114293332672
893,3.078862156172257
894,7.200000000000003
895,1.4070944732697093
896,7.200000000000003
897,1.4901401922157863
898,13.99535638048676
899,16.606984333333334
900,12.209866859772943
901,16.606984333333334
902,12.209866859772943
903,16.606984333333334
904,12.209866859772943
905,16.606984333333334
906,31.50689772004726
907,6.102245520975216
908,7.200000000000003
909,1.0985878149576834
910,7.200000000000003
911,0.04754059337297608
912,34.94074062952937
913,37.89717613333333
914,34.6946759209204
915,37.89717613333333
916,34.6946759209204
917,37.89717613333333
918,34.68878232273711
919,37.89717613333333
920,23.063222490770259
921,3.078862156172257
922,15.486505421881948
923,3.078862156172257
924,15.859760983437396
925,35.99809765523039
926,10.370608352608226
927,1.4901401922157863
646,0.5333333333333333
648,0.13333333333333334
2,1, 1, 1, 0, 2,15.00,30.00,Tuesday
6,7.2
239,1.0603881863002803
312,22.33021992474746
313,41.70047428862291
349,46.14690061654485
350,10.657135987575954
599,0.0
600,0.0
603,14.023001159857373
604,14.023001159857867
645,0.19939858909640074
647,0.11265384401186891
649,0.32666666666666668
650,0.41999999999999995
662,113.52157418223026
663,0.0
726,19.87146643017113
727,0.0
730,9.711442250659513
731,0.0027188646268008558
734,1.6260858043680218
735,0.0024004470867858395
737,1013.3739946212575
739,22.189676341936204
741,0.0
743,0.0
892,13.964806428206995
893,2.751261266666667
894,7.200000000000003
895,1.1625666629177758
896,7.200000000000003
897,1.190486376548726
898,13.585233447103644
899,16.980088266666667
900,11.709765358467948
901,16.980088266666667
902,11.702934154683895
903,16.980088266666667
904,11.702934154683895
905,16.980088266666667
906,29.99397055837821
907,5.999351418644636
908,7.200000000000003
909,1.7452501632659093
910,7.200000000000003
911,0.7209115886436782
912,34.43417163148801
913,35.26191493333333
914,30.857387947862838
915,35.26191493333333
916,30.857387947862838
917,35.26191493333333
918,30.855414560339257
919,35.26191493333333
920