Program Version,EnergyPlus, Version 8.8.0-Unknown, YMD=2019.07.12 14:06
1,5,Environment Title[],Latitude[deg],Longitude[deg],Time Zone[],Elevation[m]
2,6,Day of Simulation[],Month[],Day of Month[],DST Indicator[1=yes 0=no],Hour[],StartMinute[],EndMinute[],DayType
3,3,Cumulative Day of Simulation[],Month[],Day of Month[],DST Indicator[1=yes 0=no],DayType  ! When Daily Report Variables Requested
4,2,Cumulative Days of Simulation[],Month[]  ! When Monthly Report Variables Requested
5,1,Cumulative Days of Simulation[] ! When Run Period Report Variables Requested
6,1,Environment,Site Outdoor Air Drybulb Temperature [C] !TimeStep
133,1,WESTDATACENTER_EQUIP,ITE CPU Electric Power [W] !Hourly
134,1,WESTDATACENTER_EQUIP,ITE Fan Electric Power [W] !Hourly
135,1,WESTDATACENTER_EQUIP,ITE UPS Electric Power [W] !Hourly
136,1,WESTDATACENTER_EQUIP,ITE CPU Electric Power at Design Inlet Conditions [W] !Hourly
137,1,WESTDATACENTER_EQUIP,ITE Fan Electric Power at Design Inlet Conditions [W] !Hourly
138,1,WESTDATACENTER_EQUIP,ITE UPS Heat Gain to Zone Rate [W] !Hourly
139,1,WESTDATACENTER_EQUIP,ITE Total Heat Gain to Zone Rate [W] !Hourly
173,1,WESTDATACENTER_EQUIP,ITE Standard Density Air Volume Flow Rate [m3/s] !Hourly
174,1,WESTDATACENTER_EQUIP,ITE Air Inlet Dry-Bulb Temperature [C] !Hourly
175,1,WESTDATACENTER_EQUIP,ITE Air Inlet Dewpoint Temperature [C] !Hourly
176,1,WESTDATACENTER_EQUIP,ITE Air Inlet Relative Humidity [%] !Hourly
177,1,WESTDATACENTER_EQUIP,ITE Air Outlet Dry-Bulb Temperature [C] !Hourly
178,1,WESTDATACENTER_EQUIP,ITE Supply Heat Index [] !Hourly
179,1,WESTDATACENTER_EQUIP,ITE Air Inlet Operating Range Exceeded Time [hr] !Hourly
180,1,WESTDATACENTER_EQUIP,ITE Air Inlet Dry-Bulb Temperature Above Operating Range Time [hr] !Hourly
181,1,WESTDATACENTER_EQUIP,ITE Air Inlet Dry-Bulb Temperature Below Operating Range Time [hr] !Hourly
182,1,WESTDATACENTER_EQUIP,ITE Air Inlet Dewpoint Temperature Above Operating Range Time [hr] !Hourly
183,1,WESTDATACENTER_EQUIP,ITE Air Inlet Dewpoint Temperature Below Operating Range Time [hr] !Hourly
184,1,WESTDATACENTER_EQUIP,ITE Air Inlet Relative Humidity Above Operating Range Time [hr] !Hourly
185,1,WESTDATACENTER_EQUIP,ITE Air Inlet Relative Humidity Below Operating Range Time [hr] !Hourly
186,1,WESTDATACENTER_EQUIP,ITE Air Inlet Dry-Bulb Temperature Difference Above Operating Range [deltaC] !Hourly
187,1,WESTDATACENTER_EQUIP,ITE Air Inlet Dry-Bulb Temperature Difference Below Operating Range [deltaC] !Hourly
188,1,WESTDATACENTER_EQUIP,ITE Air Inlet Dewpoint Temperature Difference Above Operating Range [deltaC] !Hourly
189,1,WESTDATACENTER_EQUIP,ITE Air Inlet Dewpoint Temperature Difference Below Operating Range [deltaC] !Hourly
190,1,WESTDATACENTER_EQUIP,ITE Air Inlet Relative Humidity Difference Above Operating Range [%] !Hourly
191,1,WESTDATACENTER_EQUIP,ITE Air Inlet Relative Humidity Difference Below Operating Range [%] !Hourly
192,1,WEST ZONE,Zone ITE CPU Electric Power [W] !Hourly
193,1,WEST ZONE,Zone ITE Fan Electric Power [W] !Hourly
194,1,WEST ZONE,Zone ITE UPS Electric Power [W] !Hourly
195,1,WEST ZONE,Zone ITE CPU Electric Power at Design Inlet Conditions [W] !Hourly
196,1,WEST ZONE,Zone ITE Fan Electric Power at Design Inlet Conditions [W] !Hourly
197,1,WEST ZONE,Zone ITE UPS Heat Gain to Zone Rate [W] !Hourly
198,1,WEST ZONE,Zone ITE Total Heat Gain to Zone Rate [W] !Hourly
199,1,EASTDATACENTER_EQUIP,ITE CPU Electric Power [W] !Hourly
200,1,EASTDATACENTER_EQUIP,ITE Fan Electric Power [W] !Hourly
201,1,EASTDATACENTER_EQUIP,ITE UPS Electric Power [W] !Hourly
202,1,EASTDATACENTER_EQUIP,ITE CPU Electric Power at Design Inlet Conditions [W] !Hourly
203,1,EASTDATACENTER_EQUIP,ITE Fan Electric Power at Design Inlet Conditions [W] !Hourly
204,1,EASTDATACENTER_EQUIP,ITE UPS Heat Gain to Zone Rate [W] !Hourly
205,1,EASTDATACENTER_EQUIP,ITE Total Heat Gain to Zone Rate [W] !Hourly
209,1,EASTDATACENTER_EQUIP,ITE Standard Density Air Volume Flow Rate [m3/s] !Hourly
210,1,EASTDATACENTER_EQUIP,ITE Air Inlet Dry-Bulb Temperature [C] !Hourly
211,1,EASTDATACENTER_EQUIP,ITE Air Inlet Dewpoint Temperature [C] !Hourly
212,1,EASTDATACENTER_EQUIP,ITE Air Inlet Relative Humidity [%] !Hourly
213,1,EASTDATACENTER_EQUIP,ITE Air Outlet Dry-Bulb Temperature [C] !Hourly
214,1,EASTDATACENTER_EQUIP,ITE Supply Heat Index [] !Hourly
215,1,EASTDATACENTER_EQUIP,ITE Air Inlet Operating Range Exceeded Time [hr] !Hourly
216,1,EASTDATACENTER_EQUIP,ITE Air Inlet Dry-Bulb Temperature Above Operating Range Time [hr] !Hourly
217,1,EASTDATACENTER_EQUIP,ITE Air Inlet Dry-Bulb Temperature Below Operating Range Time [hr] !Hourly
218,1,EASTDATACENTER_EQUIP,ITE Air Inlet Dewpoint Temperature Above Operating Range Time [hr] !Hourly
219,1,EASTDATACENTER_EQUIP,ITE Air Inlet Dewpoint Temperature Below Operating Range Time [hr] !Hourly
220,1,EASTDATACENTER_EQUIP,ITE Air Inlet Relative Humidity Above Operating Range Time [hr] !Hourly
221,1,EASTDATACENTER_EQUIP,ITE Air Inlet Relative Humidity Below Operating Range Time [hr] !Hourly
222,1,EASTDATACENTER_EQUIP,ITE Air Inlet Dry-Bulb Temperature Difference Above Operating Range [deltaC] !Hourly
223,1,EASTDATACENTER_EQUIP,ITE Air Inlet Dry-Bulb Temperature Difference Below Operating Range [deltaC] !Hourly
224,1,EASTDATACENTER_EQUIP,ITE Air Inlet Dewpoint Temperature Difference Above Operating Range [deltaC] !Hourly
225,1,EASTDATACENTER_EQUIP,ITE Air Inlet Dewpoint Temperature Difference Below Operating Range [deltaC] !Hourly
226,1,EASTDATACENTER_EQUIP,ITE Air Inlet Relative Humidity Difference Above Operating Range [%] !Hourly
227,1,EASTDATACENTER_EQUIP,ITE Air Inlet Relative Humidity Difference Below Operating Range [%] !Hourly
228,1,EAST ZONE,Zone ITE CPU Electric Power [W] !Hourly
229,1,EAST ZONE,Zone ITE Fan Electric Power [W] !Hourly
230,1,EAST ZONE,Zone ITE UPS Electric Power [W] !Hourly
231,1,EAST ZONE,Zone ITE CPU Electric Power at Design Inlet Conditions [W] !Hourly
232,1,EAST ZONE,Zone ITE Fan Electric Power at Design Inlet Conditions [W] !Hourly
233,1,EAST ZONE,Zone ITE UPS Heat Gain to Zone Rate [W] !Hourly
234,1,EAST ZONE,Zone ITE Total Heat Gain to Zone Rate [W] !Hourly
239,1,EMS,Power Utilization Effectiveness [] !TimeStep
312,1,WEST ZONE,Zone Air Temperature [C] !TimeStep
313,1,WEST ZONE,Zone Air Relative Humidity [%] !TimeStep
314,1,WEST ZONE,Zone Thermostat Control Type [] !Hourly
315,1,WEST ZONE,Zone Thermostat Heating Setpoint Temperature [C] !Hourly
316,1,WEST ZONE,Zone Thermostat Cooling Setpoint Temperature [C] !Hourly
349,1,EAST ZONE,Zone Air Temperature [C] !TimeStep
350,1,EAST ZONE,Zone Air Relative Humidity [%] !TimeStep
351,1,EAST ZONE,Zone Thermostat Control Type [] !Hourly
352,1,EAST ZONE,Zone Thermostat Heating Setpoint Temperature [C] !Hourly
353,1,EAST ZONE,Zone Thermostat Cooling Setpoint Temperature [C] !Hourly
386,1,WEST PLENUM,Zone Thermostat Control Type [] !Hourly
387,1,WEST PLENUM,Zone Thermostat Heating Setpoint Temperature [C] !Hourly
388,1,WEST PLENUM,Zone Thermostat Cooling Setpoint Temperature [C] !Hourly
421,1,EAST PLENUM,Zone Thermostat Control Type [] !Hourly
422,1,EAST PLENUM,Zone Thermostat Heating Setpoint Temperature [C] !Hourly
423,1,EAST PLENUM,Zone Thermostat Cooling Setpoint Temperature [C] !Hourly
517,1,Whole Building,Facility Total Building Electric Demand Power [W] !Hourly
518,1,Whole Building,Facility Total HVAC Electric Demand Power [W] !Hourly
519,1,Whole Building,Facility Total Electric Demand Power [W] !Hourly
520,1,WEST ZONE,Zone Oscillating Temperatures Time [hr] !Hourly
521,1,EAST ZONE,Zone Oscillating Temperatures Time [hr] !Hourly
522,1,WEST PLENUM,Zone Oscillating Temperatures Time [hr] !Hourly
523,1,EAST PLENUM,Zone Oscillating Temperatures Time [hr] !Hourly
524,1,Facility,Facility Any Zone Oscillating Temperatures Time [hr] !Hourly
525,1,WEST ZONE,Zone Heating Setpoint Not Met Time [hr] !Hourly
526,1,WEST ZONE,Zone Heating Setpoint Not Met While Occupied Time [hr] !Hourly
527,1,WEST ZONE,Zone Cooling Setpoint Not Met Time [hr] !Hourly
528,1,WEST ZONE,Zone Cooling Setpoint Not Met While Occupied Time [hr] !Hourly
529,1,EAST ZONE,Zone Heating Setpoint Not Met Time [hr] !Hourly
530,1,EAST ZONE,Zone Heating Setpoint Not Met While Occupied Time [hr] !Hourly
531,1,EAST ZONE,Zone Cooling Setpoint Not Met Time [hr] !Hourly
532,1,EAST ZONE,Zone Cooling Setpoint Not Met While Occupied Time [hr] !Hourly
533,1,WEST PLENUM,Zone Heating Setpoint Not Met Time [hr] !Hourly
534,1,WEST PLENUM,Zone Heating Setpoint Not Met While Occupied Time [hr] !Hourly
535,1,WEST PLENUM,Zone Cooling Setpoint Not Met Time [hr] !Hourly
536,1,WEST PLENUM,Zone Cooling Setpoint Not Met While Occupied Time [hr] !Hourly
537,1,EAST PLENUM,Zone Heating Setpoint Not Met Time [hr] !Hourly
538,1,EAST PLENUM,Zone Heating Setpoint Not Met While Occupied Time [hr] !Hourly
539,1,EAST PLENUM,Zone Cooling Setpoint Not Met Time [hr] !Hourly
540,1,EAST PLENUM,Zone Cooling Setpoint Not Met While Occupied Time [hr] !Hourly
541,1,WEST ZONE VAV SYSTEM,Zone Air Terminal VAV Damper Position [] !Hourly
542,1,WEST ZONE VAV SYSTEM,Zone Air Terminal Minimum Air Flow Fraction [] !Hourly
543,1,WEST ZONE VAV SYSTEM,Zone Air Terminal Outdoor Air Volume Flow Rate [m3/s] !Hourly
544,1,EAST ZONE VAV SYSTEM,Zone Air Terminal VAV Damper Position [] !Hourly
545,1,EAST ZONE VAV SYSTEM,Zone Air Terminal Minimum Air Flow Fraction [] !Hourly
546,1,EAST ZONE VAV SYSTEM,Zone Air Terminal Outdoor Air Volume Flow Rate [m3/s] !Hourly
599,1,WEST ZONE CW COOLING COIL,Cooling Coil Total Cooling Rate [W] !TimeStep
600,1,WEST ZONE CW COOLING COIL,Cooling Coil Sensible Cooling Rate [W] !TimeStep
603,1,EAST ZONE CW COOLING COIL,Cooling Coil Total Cooling Rate [W] !TimeStep
604,1,EAST ZONE CW COOLING COIL,Cooling Coil Sensible Cooling Rate [W] !TimeStep
605,1,WEST ZONE SUPPLY FAN,Fan Electric Power [W] !Hourly
606,1,WEST ZONE SUPPLY FAN,Fan Rise in Air Temperature [deltaC] !Hourly
607,1,WEST ZONE SUPPLY FAN,Fan Heat Gain to Air [W] !Hourly
608,1,WEST ZONE SUPPLY FAN,Fan Electric Energy [J] !Hourly
639,1,WEST ZONE SUPPLY FAN,Fan Air Mass Flow Rate [kg/s] !Hourly
640,1,EAST ZONE SUPPLY FAN,Fan Electric Power [W] !Hourly
641,1,EAST ZONE SUPPLY FAN,Fan Rise in Air Temperature [deltaC] !Hourly
642,1,EAST ZONE SUPPLY FAN,Fan Heat Gain to Air [W] !Hourly
643,1,EAST ZONE SUPPLY FAN,Fan Electric Energy [J] !Hourly
644,1,EAST ZONE SUPPLY FAN,Fan Air Mass Flow Rate [kg/s] !Hourly
645,1,WEST DATA CENTER IEC,Evaporative Cooler Total Stage Effectiveness [] !TimeStep
646,1,WEST DATA CENTER IEC,Evaporative Cooler Operating Mode Status [] !TimeStep
647,1,EAST DATA CENTER IEC,Evaporative Cooler Total Stage Effectiveness [] !TimeStep
648,1,EAST DATA CENTER IEC,Evaporative Cooler Operating Mode Status [] !TimeStep
649,1,WEST DATA CENTER DEC,Evaporative Cooler Stage Effectiveness [] !TimeStep
650,1,EAST DATA CENTER DEC,Evaporative Cooler Stage Effectiveness [] !TimeStep
662,1,WEST DATA CENTER IEC,Evaporative Cooler Electric Power [W] !TimeStep
663,1,WEST DATA CENTER IEC,Evaporative Cooler Water Volume [m3] !TimeStep
726,1,EAST DATA CENTER IEC,Evaporative Cooler Electric Power [W] !TimeStep
727,1,EAST DATA CENTER IEC,Evaporative Cooler Water Volume [m3] !TimeStep
730,1,WEST DATA CENTER DEC,Evaporative Cooler Electric Power [W] !TimeStep
731,1,WEST DATA CENTER DEC,Evaporative Cooler Water Volume [m3] !TimeStep
734,1,EAST DATA CENTER DEC,Evaporative Cooler Electric Power [W] !TimeStep
735,1,EAST DATA CENTER DEC,Evaporative Cooler Water Volume [m3] !TimeStep
737,1,WEST DX COOLING COIL,Cooling Coil Total Cooling Rate [W] !TimeStep
739,1,WEST DX COOLING COIL,Cooling Coil Sensible Cooling Rate [W] !TimeStep
741,1,EAST DX COOLING COIL,Cooling Coil Total Cooling Rate [W] !TimeStep
743,1,EAST DX COOLING COIL,Cooling Coil Sensible Cooling Rate [W] !TimeStep
766,1,CHILLER,Chiller Evaporator Cooling Rate [W] !Hourly
788,1,CHILLER,Chiller Evaporator Inlet Temperature [C] !Hourly
789,1,CHILLER,Chiller Evaporator Outlet Temperature [C] !Hourly
790,1,CHILLER,Chiller Condenser Heat Transfer Rate [W] !Hourly
802,1,CHILLER,Chiller Condenser Inlet Temperature [C] !Hourly
803,1,CHILLER,Chiller Condenser Outlet Temperature [C] !Hourly
892,1,WEST ZONE INLET NODE,System Node Temperature [C] !TimeStep
893,1,WEST ZONE INLET NODE,System Node Mass Flow Rate [kg/s] !TimeStep
894,1,WEST OUTSIDE AIR INLET NODE,System Node Temperature [C] !TimeStep
895,1,WEST OUTSIDE AIR INLET NODE,System Node Mass Flow Rate [kg/s] !TimeStep
896,1,WEST IEC SECONDARY AIR INLET NODE,System Node Temperature [C] !TimeStep
897,1,WEST IEC SECONDARY AIR INLET NODE,System Node Mass Flow Rate [kg/s] !TimeStep
898,1,WEST ZONE DEC OUTLET NODE,System Node Temperature [C] !TimeStep
899,1,WEST ZONE DEC OUTLET NODE,System Node Setpoint Temperature [C] !TimeStep
900,1,WEST ZONE IEC OUTLET NODE,System Node Temperature [C] !TimeStep
901,1,WEST ZONE IEC OUTLET NODE,System Node Setpoint Temperature [C] !TimeStep
902,1,WEST ZONE CCOIL AIR OUTLET NODE,System Node Temperature [C] !TimeStep
903,1,WEST ZONE CCOIL AIR OUTLET NODE,System Node Setpoint Temperature [C] !TimeStep
904,1,WEST AIR LOOP OUTLET NODE,System Node Temperature [C] !TimeStep
905,1,WEST AIR LOOP OUTLET NODE,System Node Setpoint Temperature [C] !TimeStep
906,1,EAST ZONE INLET NODE,System Node Temperature [C] !TimeStep
907,1,EAST ZONE INLET NODE,System Node Mass Flow Rate [kg/s] !TimeStep
908,1,EAST OUTSIDE AIR INLET NODE,System Node Temperature [C] !TimeStep
909,1,EAST OUTSIDE AIR INLET NODE,System Node Mass Flow Rate [kg/s] !TimeStep
910,1,EAST IEC SECONDARY AIR INLET NODE,System Node Temperature [C] !TimeStep
911,1,EAST IEC SECONDARY AIR INLET NODE,System Node Mass Flow Rate [kg/s] !TimeStep
912,1,EAST ZONE DEC OUTLET NODE,System Node Temperature [C] !TimeStep
913,1,EAST ZONE DEC OUTLET NODE,System Node Setpoint Temperature [C] !TimeStep
914,1,EAST ZONE IEC OUTLET NODE,System Node Temperature [C] !TimeStep
915,1,EAST ZONE IEC OUTLET NODE,System Node Setpoint Temperature [C] !TimeStep
916,1,EAST ZONE CCOIL AIR OUTLET NODE,System Node Temperature [C] !TimeStep
917,1,EAST ZONE CCOIL AIR OUTLET NODE,System Node Setpoint Temperature [C] !TimeStep
918,1,EAST AIR LOOP OUTLET NODE,System Node Temperature [C] !TimeStep
919,1,EAST AIR LOOP OUTLET NODE,System Node Setpoint Temperature [C] !TimeStep
920,1,WEST ZONE RETURN AIR NODE,System Node Temperature [C] !TimeStep
921,1,WEST ZONE RETURN AIR NODE,System Node Mass Flow Rate [kg/s] !TimeStep
922,1,WEST ZONE MIXED AIR NODE,System Node Temperature [C] !TimeStep
923,1,WEST ZONE MIXED AIR NODE,System Node Mass Flow Rate [kg/s] !TimeStep
924,1,WEST ZONE SUPPLY FAN OUTLET NODE,System Node Temperature [C] !TimeStep
925,1,EAST ZONE SUPPLY FAN OUTLET NODE,System Node Temperature [C] !TimeStep
926,1,WEST IEC SECONDARY AIR OUTLET NODE,System Node Temperature [C] !TimeStep
927,1,WEST IEC SECONDARY AIR OUTLET NODE,System Node Mass Flow Rate [kg/s] !TimeStep
End of Data Dictionary
1,WHOLEYEARDAY,  37.62,-122.40,  -8.00,   2.00
2,1, 1, 1, 0, 1, 0.00,15.00,Tuesday
6,6.825
239,1.0300298866314462
312,18.840025649448497
313,41.33733734261772
349,19.12054426182923
350,41.79766458532676
599,0.0
600,0.0
603,0.0
604,0.0
645,0.12412818674145666
647,0.1605822959311288
649,0.32666666666666668
650,0.46666666666666659
662,29.230827420690426
663,0.0
726,46.10981937160056
727,0.0
730,8.117868162095985
731,0.0036796204573305258
734,8.399472803368866
735,0.005002244385805251
737,0.0
739,0.0
741,0.0
743,0.0
892,13.125968871836099
893,4.532708514194614
894,6.825
895,1.9420355152481679
896,6.825
897,0.7851876534668427
898,12.75650281336596
899,19.855432000000005
900,11.99977295814153
901,19.855432000000005
902,11.99977295814153
903,19.855432000000005
904,11.99977295814153
905,19.855432000000005
906,14.315334109715458
907,6.044420116314056
908,6.825
909,1.7162945153300849
910,6.825
911,1.2642133856859733
912,14.910399805475447
913,22.415406866666669
914,13.783279589125092
915,22.415406866666669
916,13.783279589125092
917,22.415406866666669
918,13.783279589125092
919,22.415406866666669
920,19.08729738954069
921,4.532708514194614
922,13.74201127837844
923,4.532708514194614
924,14.071466629260807
925,16.410571005231746
926,8.467180408135894
927,0.7851876534668427
646,0.3333333333333333
648,0.3333333333333333
2,1, 1, 1, 0, 1,15.00,30.00,Tuesday
6,6.95
239,1.0891511551354594
312,16.921635119720347
313,53.109923968241009
349,22.714125792901947
350,37.445597358406327
599,0.0
600,0.0
603,0.0
604,0.0
645,0.17939064888746199
647,0.058516603896949809
649,0.2333333333333333
650,0.6066666666666665
662,69.62848237503508
663,0.0
726,29.700847093598534
727,0.0
730,6.0
731,0.0028974409926251639
734,7.6229628360686159
735,0.00494913804702587
737,0.0
739,0.0
741,0.0
743,0.0
892,12.67984247360573
893,5.233731893205795
894,6.9499999999999979
895,1.7905550407921003
896,6.9499999999999979
897,1.3604617687351355
898,13.256864076139472
899,18.418587466666666
900,11.860397025627457
901,18.418587466666666
902,11.860397025627457
903,18.418587466666666
904,11.860397025627457
905,18.418587466666666
906,17.626405018579953
907,5.937572018644636
908,6.9499999999999979
909,0.9572417439282697
910,6.9499999999999979
911,0.49903068471972225
912,18.65580538054693
913,26.371632933333339
914,18.151063747812637
915,26.371632933333339
916,18.151063747812637
917,26.371632933333339
918,18.151063747812637
919,26.371632933333339
920,17.17143801778298
921,5.233731893205795
922,13.87902224829506
923,5.233731893205795
924,14.187307583516365
925,20.157460204023907
926,9.013323562855766
927,1.3604617687351355
646,0.3333333333333333
648,0.13333333333333334
2,1, 1, 1, 0, 1,30.00,45.00,Tuesday
6,7.075
239,1.0685232130200786
312,15.312553110350754
313,54.6043904092104
349,27.969099224000705
350,32.4867543174833
599,0.0
600,0.0
603,0.0
604,0.0
645,0.21903614990653226
647,0.11421528983051729
649,0.0
650,0.5599999999999998
662,73.08632210872209
663,0.0
726,13.914397397475682
727,0.0
730,0.0
731,0.0
734,10.0
735,0.00848593221516624
737,0.0
739,0.0
741,0.0
743,0.0
892,12.014554772937185
893,5.1011136475279479
894,7.075
895,2.045160958224745
896,7.075
897,1.5030400472185797
898,12.343310111245345
899,15.207750466666664
900,10.632968839982416
901,15.207750466666664
902,10.632968839982416
903,15.207750466666664
904,10.632968839982416
905,15.207750466666664
906,19.20617596101966
907,4.93524424498623
908,7.075
909,0.9586134063308174
910,7.075
911,0.6252185962301662
912,20.613045524431347
913,28.015699933333324
914,19.385036132242385
915,28.015699933333324
916,19.385036132242385
917,28.015699933333324
918,19.385036132242385
919,28.015699933333324
920,15.420147910793306
921,5.1011136475279479
922,12.033281925295397
923,5.1011136475279479
924,12.343310111245345
925,23.037297767956284
926,9.508870487510615
927,1.5030400472185797
646,0.39999999999999999
648,0.3333333333333333
2,1, 1, 1, 0, 1,45.00,60.00,Tuesday
6,7.2
239,1.0548771140188618
312,16.420268704911704
313,50.552680024323198
349,29.397348167137737
350,31.65228370823766
599,0.0
600,0.0
603,0.0
604,0.0
645,0.2698621171855109
647,0.14049640535828748
649,0.175
650,0.5249999999999999
662,3.686969160892196
663,0.0
726,9.037323696433865
727,0.0
730,7.5
731,0.0009586001312306698
734,7.5
735,0.003701738172759436
737,0.0
739,0.0
741,0.0
743,0.0
892,12.057045744834163
893,2.83061175
894,7.2
895,1.5400715499742186
896,7.2
897,0.5919278963628247
898,11.626814064395412
899,11.63391075
900,9.963198957549498
901,11.63391075
902,9.963198957549498
903,11.63391075
904,9.963198957549498
905,11.63391075
906,22.414926832199094
907,4.816121133739673
908,7.2
909,0.8769235521687058
910,7.2
911,0.5913832830693797
912,22.327582406729087
913,27.663378249999999
914,20.38064527108738
915,27.663378249999999
916,20.38064527108738
917,27.663378249999999
918,20.38064527108738
919,27.663378249999999
920,16.04033412979301
921,2.83061175
922,12.240309087543439
923,2.83061175
924,12.621221200882684
925,24.32374553376913
926,9.642957768793567
927,0.5919278963628247
646,0.5
648,0.25
2,1, 1, 1, 0, 1, 0.00,60.00,Tuesday
133,8594.227082587726
134,4876.979054754993
135,1347.1206137342715
136,13936.849545599995
137,10219.334400000002
138,1347.1206137342715
139,14818.326751076991
173,1.799305276701836
174,12.12476828247762
175,5.41542570138855
176,0.6391854035730767
177,21.137860746101219
178,0.0700681118552995
179,1.0
180,0.0
181,0.0
182,0.0
183,0.0
184,0.0
185,1.0
186,0.0
187,0.0
188,0.0
189,0.0
190,0.0
191,-19.360814596426925
192,8594.227082587726
193,4876.979054754993
194,1347.1206137342715
195,13936.849545599995
196,10219.334400000002
197,1347.1206137342715
198,14818.326751076991
199,21851.206154704792
200,17704.05644788241
201,3955.526260258719
202,15546.354479999996
203,11399.520000000002
204,3955.526260258719
205,43510.78886284592
209,6.365101242774802
210,18.041790396731899
211,7.576914197671947
212,0.5102610759066831
213,25.52490267979566
214,0.06624138826715356
215,1.0
216,0.0
217,0.0
218,0.0
219,0.0
220,0.0
221,1.0
222,0.0
223,0.0
224,0.0
225,0.0
226,0.0
227,-19.489738924093318
228,21851.206154704792
229,17704.05644788241
230,3955.526260258719
231,15546.354479999996
232,11399.520000000002
233,3955.526260258719
234,43510.78886284592
315,20.0
316,23.0
352,20.0
353,23.0
387,0.0
388,0.0
422,0.0
423,0.0
525,1.0
526,0.0
527,0.0
528,0.0
529,0.25
530,0.0
531,0.5
532,0.0
533,0.0
534,0.0
535,0.0
536,0.0
537,0.0
538,0.0
539,0.0
540,0.0
314,4.0
351,4.0
386,0.0
421,0.0
517,58357.515613922915
518,3497.4078808742343
519,61854.92349479714
520,0.0
521,0.0
522,0.09583333333333333
523,0.016666666666666668
524,0.1125
541,0.70927694313466
542,0.4
543,1.5194522675764888
544,0.7774111495149383
545,0.4
546,0.9362513230022855
605,1558.5452774780324
606,0.33217024634821598
607,1402.6907497302288
608,5610762.9989209179
639,4.4245414512320899
640,1856.4787802897072
641,0.3096814841953272
642,1670.8309022607364
643,6683323.609042944
644,5.433339378421149
766,0.0
788,10.204275065416635
789,10.204275065416635
790,0.0
802,9.932642824349
803,9.932642824349
2,1, 1, 1, 0, 2, 0.00,15.00,Tuesday
6,7.2
239,1.0375652212889087
312,17.054574583207793
313,49.880421229511309
349,25.438381354501627
350,38.29857922249343
599,0.0
600,0.0
603,5637.05719567407
604,567.0418532939823
645,0.1399230491214677
647,0.23313218581817789
649,0.27999999999999999
650,0.46666666666666659
662,15.604515865167024
663,0.0
726,228.3486685428857
727,0.0
730,4.9198600273763939
731,0.0015334357860381332
734,14.0
735,0.005885925942267688
737,0.0
739,0.0
741,0.0
743,0.0
892,13.543634833722948
893,3.7288020246890256
894,7.200000000000003
895,1.5005016573023765
896,7.200000000000003
897,0.5637466489243845
898,12.81943096913557
899,16.440743266666666
900,11.942324050926955
901,16.440743266666666
902,11.942324050926955
903,16.440743266666666
904,11.942324050926955
905,16.440743266666666
906,15.726444299314544
907,5.095213813983477
908,7.200000000000003
909,2.079686940914278
910,7.200000000000003
911,2.0062813356334647
912,16.47552147318846
913,21.174413733333336
914,13.972388625074922
915,21.174413733333336
916,13.972388625074922
917,21.174413733333336
918,13.846065404416754
919,21.174413733333336
920,16.923510642070626
921,3.7288020246890256
922,13.117100489305667
923,3.7288020246890256
924,13.482705132137563
925,19.162126638155116
926,8.486218526461169
927,0.5637466489243845
646,0.26666666666666669
648,0.4666666666666666
2,1, 1, 1, 0, 2,15.00,30.00,Tuesday
6,7.2
239,1.0557899993209572
312,18.974122004258797
313,47.86519748698949
349,19.343771720284857
350,54.33313264612707
599,0.0
600,0.0
603,3.772196110427766
604,3.77219611043038
645,0.15254804481282176
647,0.25212712653423338
649,0.27999999999999999
650,0.3733333333333333
662,32.78216884319908
663,0.0
726,88.1217919723343
727,0.0
730,7.699849364169015
731,0.0027216188836986724
734,12.0
735,0.005380370154632455
737,0.0
739,0.0
741,0.0
743,0.0
892,13.754331069320616
893,4.255926158022358
894,7.200000000000003
895,1.6152246139358866
896,7.200000000000003
897,0.8978364056630659
898,13.711926510653822
899,20.71252653333333
900,12.639313540525544
901,20.71252653333333
902,12.639313540525544
903,20.71252653333333
904,12.639313540525544
905,20.71252653333333
906,13.80332097076182
907,5.812826151977968
908,7.200000000000003
909,2.0399737621106439
910,7.200000000000003
911,1.8352608186433
912,13.9718423733091
913,19.003093933333333
914,12.083755065776965
915,19.003093933333333
916,12.083755065776965
917,19.003093933333333
918,12.083180050439785
919,19.003093933333333
920,18.837292564814118
921,4.255926158022358
922,14.551256429934208
923,4.255926158022358
924,14.877000321642014
925,15.696032456050716
926,9.137153016401732
927,0.8978364056630659
646,0.3333333333333333
648,0.5333333333333333