Program Version,EnergyPlus, Version 8.8.0-Unknown, YMD=2019.07.12 13:08
1,5,Environment Title[],Latitude[deg],Longitude[deg],Time Zone[],Elevation[m]
2,6,Day of Simulation[],Month[],Day of Month[],DST Indicator[1=yes 0=no],Hour[],StartMinute[],EndMinute[],DayType
3,3,Cumulative Day of Simulation[],Month[],Day of Month[],DST Indicator[1=yes 0=no],DayType  ! When Daily Report Variables Requested
4,2,Cumulative Days of Simulation[],Month[]  ! When Monthly Report Variables Requested
5,1,Cumulative Days of Simulation[] ! When Run Period Report Variables Requested
6,1,Environment,Site Outdoor Air Drybulb Temperature [C] !TimeStep
133,1,WESTDATACENTER_EQUIP,ITE CPU Electric Power [W] !Hourly
134,1,WESTDATACENTER_EQUIP,ITE Fan Electric Power [W] !Hourly
135,1,WESTDATACENTER_EQUIP,ITE UPS Electric Power [W] !Hourly
136,1,WESTDATACENTER_EQUIP,ITE CPU Electric Power at Design Inlet Conditions [W] !Hourly
137,1,WESTDATACENTER_EQUIP,ITE Fan Electric Power at Design Inlet Conditions [W] !Hourly
138,1,WESTDATACENTER_EQUIP,ITE UPS Heat Gain to Zone Rate [W] !Hourly
139,1,WESTDATACENTER_EQUIP,ITE Total Heat Gain to Zone Rate [W] !Hourly
173,1,WESTDATACENTER_EQUIP,ITE Standard Density Air Volume Flow Rate [m3/s] !Hourly
174,1,WESTDATACENTER_EQUIP,ITE Air Inlet Dry-Bulb Temperature [C] !Hourly
175,1,WESTDATACENTER_EQUIP,ITE Air Inlet Dewpoint Temperature [C] !Hourly
176,1,WESTDATACENTER_EQUIP,ITE Air Inlet Relative Humidity [%] !Hourly
177,1,WESTDATACENTER_EQUIP,ITE Air Outlet Dry-Bulb Temperature [C] !Hourly
178,1,WESTDATACENTER_EQUIP,ITE Supply Heat Index [] !Hourly
179,1,WESTDATACENTER_EQUIP,ITE Air Inlet Operating Range Exceeded Time [hr] !Hourly
180,1,WESTDATACENTER_EQUIP,ITE Air Inlet Dry-Bulb Temperature Above Operating Range Time [hr] !Hourly
181,1,WESTDATACENTER_EQUIP,ITE Air Inlet Dry-Bulb Temperature Below Operating Range Time [hr] !Hourly
182,1,WESTDATACENTER_EQUIP,ITE Air Inlet Dewpoint Temperature Above Operating Range Time [hr] !Hourly
183,1,WESTDATACENTER_EQUIP,ITE Air Inlet Dewpoint Temperature Below Operating Range Time [hr] !Hourly
184,1,WESTDATACENTER_EQUIP,ITE Air Inlet Relative Humidity Above Operating Range Time [hr] !Hourly
185,1,WESTDATACENTER_EQUIP,ITE Air Inlet Relative Humidity Below Operating Range Time [hr] !Hourly
186,1,WESTDATACENTER_EQUIP,ITE Air Inlet Dry-Bulb Temperature Difference Above Operating Range [deltaC] !Hourly
187,1,WESTDATACENTER_EQUIP,ITE Air Inlet Dry-Bulb Temperature Difference Below Operating Range [deltaC] !Hourly
188,1,WESTDATACENTER_EQUIP,ITE Air Inlet Dewpoint Temperature Difference Above Operating Range [deltaC] !Hourly
189,1,WESTDATACENTER_EQUIP,ITE Air Inlet Dewpoint Temperature Difference Below Operating Range [deltaC] !Hourly
190,1,WESTDATACENTER_EQUIP,ITE Air Inlet Relative Humidity Difference Above Operating Range [%] !Hourly
191,1,WESTDATACENTER_EQUIP,ITE Air Inlet Relative Humidity Difference Below Operating Range [%] !Hourly
192,1,WEST ZONE,Zone ITE CPU Electric Power [W] !Hourly
193,1,WEST ZONE,Zone ITE Fan Electric Power [W] !Hourly
194,1,WEST ZONE,Zone ITE UPS Electric Power [W] !Hourly
195,1,WEST ZONE,Zone ITE CPU Electric Power at Design Inlet Conditions [W] !Hourly
196,1,WEST ZONE,Zone ITE Fan Electric Power at Design Inlet Conditions [W] !Hourly
197,1,WEST ZONE,Zone ITE UPS Heat Gain to Zone Rate [W] !Hourly
198,1,WEST ZONE,Zone ITE Total Heat Gain to Zone Rate [W] !Hourly
199,1,EASTDATACENTER_EQUIP,ITE CPU Electric Power [W] !Hourly
200,1,EASTDATACENTER_EQUIP,ITE Fan Electric Power [W] !Hourly
201,1,EASTDATACENTER_EQUIP,ITE UPS Electric Power [W] !Hourly
202,1,EASTDATACENTER_EQUIP,ITE CPU Electric Power at Design Inlet Conditions [W] !Hourly
203,1,EASTDATACENTER_EQUIP,ITE Fan Electric Power at Design Inlet Conditions [W] !Hourly
204,1,EASTDATACENTER_EQUIP,ITE UPS Heat Gain to Zone Rate [W] !Hourly
205,1,EASTDATACENTER_EQUIP,ITE Total Heat Gain to Zone Rate [W] !Hourly
209,1,EASTDATACENTER_EQUIP,ITE Standard Density Air Volume Flow Rate [m3/s] !Hourly
210,1,EASTDATACENTER_EQUIP,ITE Air Inlet Dry-Bulb Temperature [C] !Hourly
211,1,EASTDATACENTER_EQUIP,ITE Air Inlet Dewpoint Temperature [C] !Hourly
212,1,EASTDATACENTER_EQUIP,ITE Air Inlet Relative Humidity [%] !Hourly
213,1,EASTDATACENTER_EQUIP,ITE Air Outlet Dry-Bulb Temperature [C] !Hourly
214,1,EASTDATACENTER_EQUIP,ITE Supply Heat Index [] !Hourly
215,1,EASTDATACENTER_EQUIP,ITE Air Inlet Operating Range Exceeded Time [hr] !Hourly
216,1,EASTDATACENTER_EQUIP,ITE Air Inlet Dry-Bulb Temperature Above Operating Range Time [hr] !Hourly
217,1,EASTDATACENTER_EQUIP,ITE Air Inlet Dry-Bulb Temperature Below Operating Range Time [hr] !Hourly
218,1,EASTDATACENTER_EQUIP,ITE Air Inlet Dewpoint Temperature Above Operating Range Time [hr] !Hourly
219,1,EASTDATACENTER_EQUIP,ITE Air Inlet Dewpoint Temperature Below Operating Range Time [hr] !Hourly
220,1,EASTDATACENTER_EQUIP,ITE Air Inlet Relative Humidity Above Operating Range Time [hr] !Hourly
221,1,EASTDATACENTER_EQUIP,ITE Air Inlet Relative Humidity Below Operating Range Time [hr] !Hourly
222,1,EASTDATACENTER_EQUIP,ITE Air Inlet Dry-Bulb Temperature Difference Above Operating Range [deltaC] !Hourly
223,1,EASTDATACENTER_EQUIP,ITE Air Inlet Dry-Bulb Temperature Difference Below Operating Range [deltaC] !Hourly
224,1,EASTDATACENTER_EQUIP,ITE Air Inlet Dewpoint Temperature Difference Above Operating Range [deltaC] !Hourly
225,1,EASTDATACENTER_EQUIP,ITE Air Inlet Dewpoint Temperature Difference Below Operating Range [deltaC] !Hourly
226,1,EASTDATACENTER_EQUIP,ITE Air Inlet Relative Humidity Difference Above Operating Range [%] !Hourly
227,1,EASTDATACENTER_EQUIP,ITE Air Inlet Relative Humidity Difference Below Operating Range [%] !Hourly
228,1,EAST ZONE,Zone ITE CPU Electric Power [W] !Hourly
229,1,EAST ZONE,Zone ITE Fan Electric Power [W] !Hourly
230,1,EAST ZONE,Zone ITE UPS Electric Power [W] !Hourly
231,1,EAST ZONE,Zone ITE CPU Electric Power at Design Inlet Conditions [W] !Hourly
232,1,EAST ZONE,Zone ITE Fan Electric Power at Design Inlet Conditions [W] !Hourly
233,1,EAST ZONE,Zone ITE UPS Heat Gain to Zone Rate [W] !Hourly
234,1,EAST ZONE,Zone ITE Total Heat Gain to Zone Rate [W] !Hourly
239,1,EMS,Power Utilization Effectiveness [] !TimeStep
312,1,WEST ZONE,Zone Air Temperature [C] !TimeStep
313,1,WEST ZONE,Zone Air Relative Humidity [%] !TimeStep
314,1,WEST ZONE,Zone Thermostat Control Type [] !Hourly
315,1,WEST ZONE,Zone Thermostat Heating Setpoint Temperature [C] !Hourly
316,1,WEST ZONE,Zone Thermostat Cooling Setpoint Temperature [C] !Hourly
349,1,EAST ZONE,Zone Air Temperature [C] !TimeStep
350,1,EAST ZONE,Zone Air Relative Humidity [%] !TimeStep
351,1,EAST ZONE,Zone Thermostat Control Type [] !Hourly
352,1,EAST ZONE,Zone Thermostat Heating Setpoint Temperature [C] !Hourly
353,1,EAST ZONE,Zone Thermostat Cooling Setpoint Temperature [C] !Hourly
386,1,WEST PLENUM,Zone Thermostat Control Type [] !Hourly
387,1,WEST PLENUM,Zone Thermostat Heating Setpoint Temperature [C] !Hourly
388,1,WEST PLENUM,Zone Thermostat Cooling Setpoint Temperature [C] !Hourly
421,1,EAST PLENUM,Zone Thermostat Control Type [] !Hourly
422,1,EAST PLENUM,Zone Thermostat Heating Setpoint Temperature [C] !Hourly
423,1,EAST PLENUM,Zone Thermostat Cooling Setpoint Temperature [C] !Hourly
517,1,Whole Building,Facility Total Building Electric Demand Power [W] !Hourly
518,1,Whole Building,Facility Total HVAC Electric Demand Power [W] !Hourly
519,1,Whole Building,Facility Total Electric Demand Power [W] !Hourly
520,1,WEST ZONE,Zone Oscillating Temperatures Time [hr] !Hourly
521,1,EAST ZONE,Zone Oscillating Temperatures Time [hr] !Hourly
522,1,WEST PLENUM,Zone Oscillating Temperatures Time [hr] !Hourly
523,1,EAST PLENUM,Zone Oscillating Temperatures Time [hr] !Hourly
524,1,Facility,Facility Any Zone Oscillating Temperatures Time [hr] !Hourly
525,1,WEST ZONE,Zone Heating Setpoint Not Met Time [hr] !Hourly
526,1,WEST ZONE,Zone Heating Setpoint Not Met While Occupied Time [hr] !Hourly
527,1,WEST ZONE,Zone Cooling Setpoint Not Met Time [hr] !Hourly
528,1,WEST ZONE,Zone Cooling Setpoint Not Met While Occupied Time [hr] !Hourly
529,1,EAST ZONE,Zone Heating Setpoint Not Met Time [hr] !Hourly
530,1,EAST ZONE,Zone Heating Setpoint Not Met While Occupied Time [hr] !Hourly
531,1,EAST ZONE,Zone Cooling Setpoint Not Met Time [hr] !Hourly
532,1,EAST ZONE,Zone Cooling Setpoint Not Met While Occupied Time [hr] !Hourly
533,1,WEST PLENUM,Zone Heating Setpoint Not Met Time [hr] !Hourly
534,1,WEST PLENUM,Zone Heating Setpoint Not Met While Occupied Time [hr] !Hourly
535,1,WEST PLENUM,Zone Cooling Setpoint Not Met Time [hr] !Hourly
536,1,WEST PLENUM,Zone Cooling Setpoint Not Met While Occupied Time [hr] !Hourly
537,1,EAST PLENUM,Zone Heating Setpoint Not Met Time [hr] !Hourly
538,1,EAST PLENUM,Zone Heating Setpoint Not Met While Occupied Time [hr] !Hourly
539,1,EAST PLENUM,Zone Cooling Setpoint Not Met Time [hr] !Hourly
540,1,EAST PLENUM,Zone Cooling Setpoint Not Met While Occupied Time [hr] !Hourly
541,1,WEST ZONE VAV SYSTEM,Zone Air Terminal VAV Damper Position [] !Hourly
542,1,WEST ZONE VAV SYSTEM,Zone Air Terminal Minimum Air Flow Fraction [] !Hourly
543,1,WEST ZONE VAV SYSTEM,Zone Air Terminal Outdoor Air Volume Flow Rate [m3/s] !Hourly
544,1,EAST ZONE VAV SYSTEM,Zone Air Terminal VAV Damper Position [] !Hourly
545,1,EAST ZONE VAV SYSTEM,Zone Air Terminal Minimum Air Flow Fraction [] !Hourly
546,1,EAST ZONE VAV SYSTEM,Zone Air Terminal Outdoor Air Volume Flow Rate [m3/s] !Hourly
599,1,WEST ZONE CW COOLING COIL,Cooling Coil Total Cooling Rate [W] !TimeStep
600,1,WEST ZONE CW COOLING COIL,Cooling Coil Sensible Cooling Rate [W] !TimeStep
603,1,EAST ZONE CW COOLING COIL,Cooling Coil Total Cooling Rate [W] !TimeStep
604,1,EAST ZONE CW COOLING COIL,Cooling Coil Sensible Cooling Rate [W] !TimeStep
605,1,WEST ZONE SUPPLY FAN,Fan Electric Power [W] !Hourly
606,1,WEST ZONE SUPPLY FAN,Fan Rise in Air Temperature [deltaC] !Hourly
607,1,WEST ZONE SUPPLY FAN,Fan Heat Gain to Air [W] !Hourly
608,1,WEST ZONE SUPPLY FAN,Fan Electric Energy [J] !Hourly
639,1,WEST ZONE SUPPLY FAN,Fan Air Mass Flow Rate [kg/s] !Hourly
640,1,EAST ZONE SUPPLY FAN,Fan Electric Power [W] !Hourly
641,1,EAST ZONE SUPPLY FAN,Fan Rise in Air Temperature [deltaC] !Hourly
642,1,EAST ZONE SUPPLY FAN,Fan Heat Gain to Air [W] !Hourly
643,1,EAST ZONE SUPPLY FAN,Fan Electric Energy [J] !Hourly
644,1,EAST ZONE SUPPLY FAN,Fan Air Mass Flow Rate [kg/s] !Hourly
645,1,WEST DATA CENTER IEC,Evaporative Cooler Total Stage Effectiveness [] !TimeStep
646,1,WEST DATA CENTER IEC,Evaporative Cooler Operating Mode Status [] !TimeStep
647,1,EAST DATA CENTER IEC,Evaporative Cooler Total Stage Effectiveness [] !TimeStep
648,1,EAST DATA CENTER IEC,Evaporative Cooler Operating Mode Status [] !TimeStep
649,1,WEST DATA CENTER DEC,Evaporative Cooler Stage Effectiveness [] !TimeStep
650,1,EAST DATA CENTER DEC,Evaporative Cooler Stage Effectiveness [] !TimeStep
662,1,WEST DATA CENTER IEC,Evaporative Cooler Electric Power [W] !TimeStep
663,1,WEST DATA CENTER IEC,Evaporative Cooler Water Volume [m3] !TimeStep
726,1,EAST DATA CENTER IEC,Evaporative Cooler Electric Power [W] !TimeStep
727,1,EAST DATA CENTER IEC,Evaporative Cooler Water Volume [m3] !TimeStep
730,1,WEST DATA CENTER DEC,Evaporative Cooler Electric Power [W] !TimeStep
731,1,WEST DATA CENTER DEC,Evaporative Cooler Water Volume [m3] !TimeStep
734,1,EAST DATA CENTER DEC,Evaporative Cooler Electric Power [W] !TimeStep
735,1,EAST DATA CENTER DEC,Evaporative Cooler Water Volume [m3] !TimeStep
737,1,WEST DX COOLING COIL,Cooling Coil Total Cooling Rate [W] !TimeStep
739,1,WEST DX COOLING COIL,Cooling Coil Sensible Cooling Rate [W] !TimeStep
741,1,EAST DX COOLING COIL,Cooling Coil Total Cooling Rate [W] !TimeStep
743,1,EAST DX COOLING COIL,Cooling Coil Sensible Cooling Rate [W] !TimeStep
766,1,CHILLER,Chiller Evaporator Cooling Rate [W] !Hourly
788,1,CHILLER,Chiller Evaporator Inlet Temperature [C] !Hourly
789,1,CHILLER,Chiller Evaporator Outlet Temperature [C] !Hourly
790,1,CHILLER,Chiller Condenser Heat Transfer Rate [W] !Hourly
802,1,CHILLER,Chiller Condenser Inlet Temperature [C] !Hourly
803,1,CHILLER,Chiller Condenser Outlet Temperature [C] !Hourly
892,1,WEST ZONE INLET NODE,System Node Temperature [C] !TimeStep
893,1,WEST ZONE INLET NODE,System Node Mass Flow Rate [kg/s] !TimeStep
894,1,WEST OUTSIDE AIR INLET NODE,System Node Temperature [C] !TimeStep
895,1,WEST OUTSIDE AIR INLET NODE,System Node Mass Flow Rate [kg/s] !TimeStep
896,1,WEST IEC SECONDARY AIR INLET NODE,System Node Temperature [C] !TimeStep
897,1,WEST IEC SECONDARY AIR INLET NODE,System Node Mass Flow Rate [kg/s] !TimeStep
898,1,WEST ZONE DEC OUTLET NODE,System Node Temperature [C] !TimeStep
899,1,WEST ZONE DEC OUTLET NODE,System Node Setpoint Temperature [C] !TimeStep
900,1,WEST ZONE IEC OUTLET NODE,System Node Temperature [C] !TimeStep
901,1,WEST ZONE IEC OUTLET NODE,System Node Setpoint Temperature [C] !TimeStep
902,1,WEST ZONE CCOIL AIR OUTLET NODE,System Node Temperature [C] !TimeStep
903,1,WEST ZONE CCOIL AIR OUTLET NODE,System Node Setpoint Temperature [C] !TimeStep
904,1,WEST AIR LOOP OUTLET NODE,System Node Temperature [C] !TimeStep
905,1,WEST AIR LOOP OUTLET NODE,System Node Setpoint Temperature [C] !TimeStep
906,1,EAST ZONE INLET NODE,System Node Temperature [C] !TimeStep
907,1,EAST ZONE INLET NODE,System Node Mass Flow Rate [kg/s] !TimeStep
908,1,EAST OUTSIDE AIR INLET NODE,System Node Temperature [C] !TimeStep
909,1,EAST OUTSIDE AIR INLET NODE,System Node Mass Flow Rate [kg/s] !TimeStep
910,1,EAST IEC SECONDARY AIR INLET NODE,System Node Temperature [C] !TimeStep
911,1,EAST IEC SECONDARY AIR INLET NODE,System Node Mass Flow Rate [kg/s] !TimeStep
912,1,EAST ZONE DEC OUTLET NODE,System Node Temperature [C] !TimeStep
913,1,EAST ZONE DEC OUTLET NODE,System Node Setpoint Temperature [C] !TimeStep
914,1,EAST ZONE IEC OUTLET NODE,System Node Temperature [C] !TimeStep
915,1,EAST ZONE IEC OUTLET NODE,System Node Setpoint Temperature [C] !TimeStep
916,1,EAST ZONE CCOIL AIR OUTLET NODE,System Node Temperature [C] !TimeStep
917,1,EAST ZONE CCOIL AIR OUTLET NODE,System Node Setpoint Temperature [C] !TimeStep
918,1,EAST AIR LOOP OUTLET NODE,System Node Temperature [C] !TimeStep
919,1,EAST AIR LOOP OUTLET NODE,System Node Setpoint Temperature [C] !TimeStep
920,1,WEST ZONE RETURN AIR NODE,System Node Temperature [C] !TimeStep
921,1,WEST ZONE RETURN AIR NODE,System Node Mass Flow Rate [kg/s] !TimeStep
922,1,WEST ZONE MIXED AIR NODE,System Node Temperature [C] !TimeStep
923,1,WEST ZONE MIXED AIR NODE,System Node Mass Flow Rate [kg/s] !TimeStep
924,1,WEST ZONE SUPPLY FAN OUTLET NODE,System Node Temperature [C] !TimeStep
925,1,EAST ZONE SUPPLY FAN OUTLET NODE,System Node Temperature [C] !TimeStep
926,1,WEST IEC SECONDARY AIR OUTLET NODE,System Node Temperature [C] !TimeStep
927,1,WEST IEC SECONDARY AIR OUTLET NODE,System Node Mass Flow Rate [kg/s] !TimeStep
End of Data Dictionary
1,WHOLEYEARDAY,  37.62,-122.40,  -8.00,   2.00
2,1, 1, 1, 0, 1, 0.00,15.00,Tuesday
6,6.825
239,1.0300298866314462
312,22.092623635042849
313,31.92246516939828
349,22.55723976903847
350,30.50195897770892
599,0.0
600,0.0
603,8.477167877313683
604,8.477167877313683
645,0.20306064016388168
647,0.0
649,0.18666666666666666
650,0.6999999999999997
662,13.922901922304508
663,0.0
726,0.0
727,0.0
730,5.729333153474245
731,0.0014189234024576119
734,0.8218417243790502
735,0.0005499359215120501
737,0.0
739,0.0
741,0.0
743,0.0
892,13.600593793483072
893,2.2899008666666669
894,6.825
895,1.2184603522560429
896,6.825
897,0.590294710253952
898,13.436395430637607
899,15.364514133333334
900,11.939682939473505
901,15.364514133333334
902,11.939682939473505
903,15.364514133333334
904,11.939682939473505
905,15.364514133333334
906,20.255211838150893
907,6.701573725636374
908,6.825
909,0.3427615798255051
910,6.825
911,0.0
912,21.813713594663459
913,35.37204726666666
914,21.813713594663459
915,35.37204726666666
916,21.813713594663459
917,35.37204726666666
918,21.812517806139615
919,35.37204726666666
920,22.16202254444376
921,2.2899008666666669
922,14.29748924346195
923,2.2899008666666669
924,14.713762796545712
925,21.957084653360423
926,10.093674647078969
927,0.590294710253952
646,0.5333333333333333
648,0.0
2,1, 1, 1, 0, 1,15.00,30.00,Tuesday
6,6.95
239,1.0613436241875836
312,22.209857892319257
313,34.83671183446919
349,32.697645940362999
350,18.156348815177556
599,0.0
600,0.0
603,0.0
604,0.0
645,0.13438414922075415
647,0.0
649,0.2333333333333333
650,0.6999999999999997
662,14.995006571563796
663,0.0
726,0.0
727,0.0
730,5.602203570366776
731,0.0017730474444384083
734,3.1368970571678145
735,0.003145777645204592
737,0.0
739,0.0
741,0.0
743,0.0
892,13.891339328924433
893,2.7492726666666664
894,6.9499999999999979
895,1.3940956389534667
896,6.9499999999999979
897,0.5558175976260404
898,13.092836520664195
899,14.016144333333333
900,12.140413599964005
901,14.016144333333333
902,12.140413599964005
903,14.016144333333333
904,12.140413599964005
905,14.016144333333333
906,27.00778936689389
907,6.096362582980722
908,6.9499999999999979
909,0.3899120487175392
910,6.9499999999999979
911,0.0
912,29.16747347893277
913,35.85731306666667
914,29.16747347893277
915,35.85731306666667
916,29.16747347893277
917,35.85731306666667
918,29.16747347893277
919,35.85731306666667
920,22.205056357743357
921,2.7492726666666664
922,13.710752094360219
923,2.7492726666666664
924,14.077714417176143
925,30.381364040945809
926,8.687808436067839
927,0.5558175976260404
646,0.3333333333333333
648,0.0
2,1, 1, 1, 0, 1,30.00,45.00,Tuesday
6,7.075
239,1.0244499722547536
312,22.13722246968123
313,37.48081941357924
349,39.70125801273943
350,14.066429964761575
599,0.0
600,0.0
603,0.0
604,0.0
645,0.17680045755825936
647,0.1010962693842388
649,0.32666666666666668
650,0.5133333333333332
662,14.046740959594916
663,0.0
726,22.951354526710099
727,0.0
730,9.856771163700966
731,0.0023436368657752859
734,3.649041511368412
735,0.0052701880637701739
737,0.0
739,0.0
741,0.0
743,0.0
892,14.837908375348885
893,2.4315376666666665
894,7.075
895,0.9814228785563738
896,7.075
897,0.617384379224065
898,14.261102935966508
899,16.464323866666665
900,12.899714865099952
901,16.464323866666665
902,12.899714865099952
903,16.464323866666665
904,12.899714865099952
905,16.464323866666665
906,28.272548502132417
907,6.472150992303041
908,7.075
909,1.1356147994329927
910,7.075
911,0.8002452636558465
912,32.45754350195214
913,34.06988653333333
914,29.479409059771819
915,34.06988653333333
916,29.479409059771819
917,34.06988653333333
918,29.479409059771819
919,34.06988653333333
920,22.146455151701237
921,2.4315376666666665
922,15.65599446961249
923,2.4315376666666665
924,16.053150451447804
925,34.02847344191565
926,10.26565488358262
927,0.617384379224065
646,0.4666666666666666
648,0.3333333333333333
2,1, 1, 1, 0, 1,45.00,60.00,Tuesday
6,7.2
239,1.0271912992344914
312,21.052786026219658
313,42.067663124688248
349,45.21940832638407
350,12.193233477004562
599,0.0
600,0.0
603,14.067328857866134
604,14.067328857863796
645,0.23406350850284447
647,0.03016831444786848
649,0.13999999999999999
650,0.46666666666666659
662,16.742779285305646
663,0.0
726,0.8530186709461194
727,0.0
730,6.0
731,0.0013871846598528188
734,2.6227431457536776
735,0.004292542445010728
737,0.0
739,0.0
741,0.0
743,0.0
892,13.143327344007105
893,3.1826904666666668
894,7.200000000000003
895,1.8187655029205945
896,7.200000000000003
897,0.9079286794477499
898,12.934766774783672
899,13.046426333333335
900,11.145580085135503
901,13.046426333333335
902,11.145580085135503
903,13.046426333333335
904,11.145580085135503
905,13.046426333333335
906,32.44541021004689
907,6.467600249647391
908,7.200000000000003
909,1.3833242819919217
910,7.200000000000003
911,0.1534631244870125
912,35.721542130541099
913,36.6579968
914,35.057184598452568
915,36.6579968
916,35.057184598452568
917,36.6579968
918,35.05520754504536
919,36.6579968
920,21.219135694585746
921,3.1826904666666668
922,13.553740729682188
923,3.1826904666666668
924,13.873814985349457
925,36.851094644628947
926,9.822471331699143
927,0.9079286794477499
646,0.4666666666666666
648,0.2
2,1, 1, 1, 0, 1, 0.00,60.00,Tuesday
133,11919.59758845812
134,8202.183300413106
135,2012.178088887122
136,13936.849545599995
137,10219.334400000002
138,2012.178088887122
139,22133.958977758346
173,3.00678538067976
174,13.914378313353958
175,5.74353336971303
176,0.5788441426814243
177,21.876906662596327
178,0.10445803803757059
179,1.0
180,0.0
181,0.0
182,0.0
183,0.0
184,0.0
185,1.0
186,0.0
187,0.0
188,0.0
189,0.0
190,0.0
191,-19.421155857318579
192,11919.59758845812
193,8202.183300413106
194,2012.178088887122
195,13936.849545599995
196,10219.334400000002
197,2012.178088887122
198,22133.958977758346
199,39218.02821666958
200,35070.010212158995
201,7428.803842882857
202,15546.354479999996
203,11399.520000000002
204,7428.803842882857
205,81716.84227171143
209,12.145965395171583
210,26.4204542092013
211,5.254180455811065
212,0.29016969522082428
213,33.851691432833749
214,0.06848784363898061
215,1.0
216,0.25
217,0.0
218,0.0
219,0.0
220,0.0
221,1.0
222,0.18621783956283978
223,0.0
224,0.0
225,0.0
226,0.0
227,-19.709830304779176
228,39218.02821666958
229,35070.010212158995
230,7428.803842882857
231,15546.354479999996
232,11399.520000000002
233,7428.803842882857
234,81716.84227171143
315,20.0
316,23.0
352,20.0
353,23.0
387,0.0
388,0.0
422,0.0
423,0.0
525,0.0
526,0.0
527,0.0
528,0.0
529,0.0
530,0.0
531,0.75
532,0.0
533,0.0
534,0.0
535,0.0
536,0.0
537,0.0
538,0.0
539,0.0
540,0.0
314,4.0
351,4.0
386,0.0
421,0.0
517,103879.20124946977
518,3441.5426274716688
519,107320.74387694148
520,0.0
521,0.0
522,0.03333333333333333
523,0.05
524,0.08333333333333334
541,0.4269488856305589
542,0.4
543,1.1238870684208549
544,0.9206476841852128
545,0.4
546,0.6751557481056673
605,1040.2727524656325
606,0.3751165283505653
607,936.2454772190691
608,3744981.908876277
639,2.6633504166666666
640,2196.749662279674
641,0.3005866085918135
642,1977.0746960517067
643,7908298.784206824
644,6.434421887641882
766,1.1405988160412406
788,10.205198952550575
789,10.098355210741517
790,1.305779273283836
802,9.909631917664737
803,9.909643815059358
2,1, 1, 1, 0, 2, 0.00,15.00,Tuesday
6,7.2
239,1.0230275785826937
312,21.89909607817075
313,39.72086890207578
349,44.27079450513296
350,12.919771481329612
599,0.0
600,0.0
603,25.29339275859002
604,25.293392758583953
645,0.07141435560248723
647,0.02765489422755232
649,0.39999999999999999
650,0.39999999999999988
662,0.771483281441191
663,0.0
726,1.098519598914561
727,0.0
730,8.338841964904109
731,0.0012430030224989866
734,2.8915675569325649
735,0.003461472592806884
737,0.0
739,0.0
741,0.0
743,0.0
892,16.28535350766641
893,2.4802015714285714
894,7.199999999999999
895,0.7510583248028027
896,7.199999999999999
897,0.15202415681229557
898,15.237809631685526
899,18.66965342857143
900,14.840692397959181
901,18.66965342857143
902,14.840692397959181
903,18.66965342857143
904,14.840692397959181
905,18.66965342857143
906,32.35009308890601
907,6.581271734262109
908,7.199999999999999
909,1.675223020928089
910,7.199999999999999
911,0.1863066870766043
912,34.557124565006429
913,35.72729271428571
914,33.65238408824277
915,35.72729271428571
916,33.65238408824277
917,35.72729271428571
918,33.64878323545091
919,35.72729271428571
920,21.53541279137893
921,2.4802015714285714
922,16.084674953368105
923,2.4802015714285714
924,16.466431052774238
925,35.73093370933282
926,7.855380483610718
927,0.15202415681229557
646,0.14285714285714283
648,0.14285714285714289
2,1, 1, 1, 0, 2,15.00,30.00,Tuesday
6,7.2
239,1.0285105430078887
312,22.850378762727993
313,37.80932071091401
349,40.236939123810248
350,16.513444026840874
599,0.0
600,0.0
603,0.0
604,0.0
645,0.14789403583323333
647,0.059815732497955579
649,0.27999999999999999
650,0.5133333333333332
662,6.026382558969533
663,0.0
726,4.68464839799732
727,0.0
730,9.499324840884976
731,0.0019497754688116037
734,5.473724310624495
735,0.006504702476611217
737,0.0
739,0.0
741,0.0
743,0.0
892,14.06187728387866
893,2.5083400666666675
894,7.200000000000003
895,1.4356028594398358
896,7.200000000000003
897,0.43694745234376716
898,13.068758474416852
899,15.288849133333337
900,11.975255714563817
901,15.288849133333337
902,11.975255714563817
903,15.288849133333337
904,11.975255714563817
905,15.288849133333337
906,27.79641426976374
907,6.716183925636376
908,7.200000000000003
909,1.8729503277648823
910,7.200000000000003
911,0.38032147912694838
912,29.776624515400149
913,32.476590533333339
914,28.300991294422564
915,32.476590533333339
916,28.300991294422564
917,32.476590533333339
918,28.300991294422564
919,32.476590533333339
920,22.74349005574505
921,2.5083400666666675