Program Version,EnergyPlus, Version 8.8.0-Unknown, YMD=2019.07.12 12:56
1,5,Environment Title[],Latitude[deg],Longitude[deg],Time Zone[],Elevation[m]
2,6,Day of Simulation[],Month[],Day of Month[],DST Indicator[1=yes 0=no],Hour[],StartMinute[],EndMinute[],DayType
3,3,Cumulative Day of Simulation[],Month[],Day of Month[],DST Indicator[1=yes 0=no],DayType  ! When Daily Report Variables Requested
4,2,Cumulative Days of Simulation[],Month[]  ! When Monthly Report Variables Requested
5,1,Cumulative Days of Simulation[] ! When Run Period Report Variables Requested
6,1,Environment,Site Outdoor Air Drybulb Temperature [C] !TimeStep
133,1,WESTDATACENTER_EQUIP,ITE CPU Electric Power [W] !Hourly
134,1,WESTDATACENTER_EQUIP,ITE Fan Electric Power [W] !Hourly
135,1,WESTDATACENTER_EQUIP,ITE UPS Electric Power [W] !Hourly
136,1,WESTDATACENTER_EQUIP,ITE CPU Electric Power at Design Inlet Conditions [W] !Hourly
137,1,WESTDATACENTER_EQUIP,ITE Fan Electric Power at Design Inlet Conditions [W] !Hourly
138,1,WESTDATACENTER_EQUIP,ITE UPS Heat Gain to Zone Rate [W] !Hourly
139,1,WESTDATACENTER_EQUIP,ITE Total Heat Gain to Zone Rate [W] !Hourly
173,1,WESTDATACENTER_EQUIP,ITE Standard Density Air Volume Flow Rate [m3/s] !Hourly
174,1,WESTDATACENTER_EQUIP,ITE Air Inlet Dry-Bulb Temperature [C] !Hourly
175,1,WESTDATACENTER_EQUIP,ITE Air Inlet Dewpoint Temperature [C] !Hourly
176,1,WESTDATACENTER_EQUIP,ITE Air Inlet Relative Humidity [%] !Hourly
177,1,WESTDATACENTER_EQUIP,ITE Air Outlet Dry-Bulb Temperature [C] !Hourly
178,1,WESTDATACENTER_EQUIP,ITE Supply Heat Index [] !Hourly
179,1,WESTDATACENTER_EQUIP,ITE Air Inlet Operating Range Exceeded Time [hr] !Hourly
180,1,WESTDATACENTER_EQUIP,ITE Air Inlet Dry-Bulb Temperature Above Operating Range Time [hr] !Hourly
181,1,WESTDATACENTER_EQUIP,ITE Air Inlet Dry-Bulb Temperature Below Operating Range Time [hr] !Hourly
182,1,WESTDATACENTER_EQUIP,ITE Air Inlet Dewpoint Temperature Above Operating Range Time [hr] !Hourly
183,1,WESTDATACENTER_EQUIP,ITE Air Inlet Dewpoint Temperature Below Operating Range Time [hr] !Hourly
184,1,WESTDATACENTER_EQUIP,ITE Air Inlet Relative Humidity Above Operating Range Time [hr] !Hourly
185,1,WESTDATACENTER_EQUIP,ITE Air Inlet Relative Humidity Below Operating Range Time [hr] !Hourly
186,1,WESTDATACENTER_EQUIP,ITE Air Inlet Dry-Bulb Temperature Difference Above Operating Range [deltaC] !Hourly
187,1,WESTDATACENTER_EQUIP,ITE Air Inlet Dry-Bulb Temperature Difference Below Operating Range [deltaC] !Hourly
188,1,WESTDATACENTER_EQUIP,ITE Air Inlet Dewpoint Temperature Difference Above Operating Range [deltaC] !Hourly
189,1,WESTDATACENTER_EQUIP,ITE Air Inlet Dewpoint Temperature Difference Below Operating Range [deltaC] !Hourly
190,1,WESTDATACENTER_EQUIP,ITE Air Inlet Relative Humidity Difference Above Operating Range [%] !Hourly
191,1,WESTDATACENTER_EQUIP,ITE Air Inlet Relative Humidity Difference Below Operating Range [%] !Hourly
192,1,WEST ZONE,Zone ITE CPU Electric Power [W] !Hourly
193,1,WEST ZONE,Zone ITE Fan Electric Power [W] !Hourly
194,1,WEST ZONE,Zone ITE UPS Electric Power [W] !Hourly
195,1,WEST ZONE,Zone ITE CPU Electric Power at Design Inlet Conditions [W] !Hourly
196,1,WEST ZONE,Zone ITE Fan Electric Power at Design Inlet Conditions [W] !Hourly
197,1,WEST ZONE,Zone ITE UPS Heat Gain to Zone Rate [W] !Hourly
198,1,WEST ZONE,Zone ITE Total Heat Gain to Zone Rate [W] !Hourly
199,1,EASTDATACENTER_EQUIP,ITE CPU Electric Power [W] !Hourly
200,1,EASTDATACENTER_EQUIP,ITE Fan Electric Power [W] !Hourly
201,1,EASTDATACENTER_EQUIP,ITE UPS Electric Power [W] !Hourly
202,1,EASTDATACENTER_EQUIP,ITE CPU Electric Power at Design Inlet Conditions [W] !Hourly
203,1,EASTDATACENTER_EQUIP,ITE Fan Electric Power at Design Inlet Conditions [W] !Hourly
204,1,EASTDATACENTER_EQUIP,ITE UPS Heat Gain to Zone Rate [W] !Hourly
205,1,EASTDATACENTER_EQUIP,ITE Total Heat Gain to Zone Rate [W] !Hourly
209,1,EASTDATACENTER_EQUIP,ITE Standard Density Air Volume Flow Rate [m3/s] !Hourly
210,1,EASTDATACENTER_EQUIP,ITE Air Inlet Dry-Bulb Temperature [C] !Hourly
211,1,EASTDATACENTER_EQUIP,ITE Air Inlet Dewpoint Temperature [C] !Hourly
212,1,EASTDATACENTER_EQUIP,ITE Air Inlet Relative Humidity [%] !Hourly
213,1,EASTDATACENTER_EQUIP,ITE Air Outlet Dry-Bulb Temperature [C] !Hourly
214,1,EASTDATACENTER_EQUIP,ITE Supply Heat Index [] !Hourly
215,1,EASTDATACENTER_EQUIP,ITE Air Inlet Operating Range Exceeded Time [hr] !Hourly
216,1,EASTDATACENTER_EQUIP,ITE Air Inlet Dry-Bulb Temperature Above Operating Range Time [hr] !Hourly
217,1,EASTDATACENTER_EQUIP,ITE Air Inlet Dry-Bulb Temperature Below Operating Range Time [hr] !Hourly
218,1,EASTDATACENTER_EQUIP,ITE Air Inlet Dewpoint Temperature Above Operating Range Time [hr] !Hourly
219,1,EASTDATACENTER_EQUIP,ITE Air Inlet Dewpoint Temperature Below Operating Range Time [hr] !Hourly
220,1,EASTDATACENTER_EQUIP,ITE Air Inlet Relative Humidity Above Operating Range Time [hr] !Hourly
221,1,EASTDATACENTER_EQUIP,ITE Air Inlet Relative Humidity Below Operating Range Time [hr] !Hourly
222,1,EASTDATACENTER_EQUIP,ITE Air Inlet Dry-Bulb Temperature Difference Above Operating Range [deltaC] !Hourly
223,1,EASTDATACENTER_EQUIP,ITE Air Inlet Dry-Bulb Temperature Difference Below Operating Range [deltaC] !Hourly
224,1,EASTDATACENTER_EQUIP,ITE Air Inlet Dewpoint Temperature Difference Above Operating Range [deltaC] !Hourly
225,1,EASTDATACENTER_EQUIP,ITE Air Inlet Dewpoint Temperature Difference Below Operating Range [deltaC] !Hourly
226,1,EASTDATACENTER_EQUIP,ITE Air Inlet Relative Humidity Difference Above Operating Range [%] !Hourly
227,1,EASTDATACENTER_EQUIP,ITE Air Inlet Relative Humidity Difference Below Operating Range [%] !Hourly
228,1,EAST ZONE,Zone ITE CPU Electric Power [W] !Hourly
229,1,EAST ZONE,Zone ITE Fan Electric Power [W] !Hourly
230,1,EAST ZONE,Zone ITE UPS Electric Power [W] !Hourly
231,1,EAST ZONE,Zone ITE CPU Electric Power at Design Inlet Conditions [W] !Hourly
232,1,EAST ZONE,Zone ITE Fan Electric Power at Design Inlet Conditions [W] !Hourly
233,1,EAST ZONE,Zone ITE UPS Heat Gain to Zone Rate [W] !Hourly
234,1,EAST ZONE,Zone ITE Total Heat Gain to Zone Rate [W] !Hourly
239,1,EMS,Power Utilization Effectiveness [] !TimeStep
312,1,WEST ZONE,Zone Air Temperature [C] !TimeStep
313,1,WEST ZONE,Zone Air Relative Humidity [%] !TimeStep
314,1,WEST ZONE,Zone Thermostat Control Type [] !Hourly
315,1,WEST ZONE,Zone Thermostat Heating Setpoint Temperature [C] !Hourly
316,1,WEST ZONE,Zone Thermostat Cooling Setpoint Temperature [C] !Hourly
349,1,EAST ZONE,Zone Air Temperature [C] !TimeStep
350,1,EAST ZONE,Zone Air Relative Humidity [%] !TimeStep
351,1,EAST ZONE,Zone Thermostat Control Type [] !Hourly
352,1,EAST ZONE,Zone Thermostat Heating Setpoint Temperature [C] !Hourly
353,1,EAST ZONE,Zone Thermostat Cooling Setpoint Temperature [C] !Hourly
386,1,WEST PLENUM,Zone Thermostat Control Type [] !Hourly
387,1,WEST PLENUM,Zone Thermostat Heating Setpoint Temperature [C] !Hourly
388,1,WEST PLENUM,Zone Thermostat Cooling Setpoint Temperature [C] !Hourly
421,1,EAST PLENUM,Zone Thermostat Control Type [] !Hourly
422,1,EAST PLENUM,Zone Thermostat Heating Setpoint Temperature [C] !Hourly
423,1,EAST PLENUM,Zone Thermostat Cooling Setpoint Temperature [C] !Hourly
517,1,Whole Building,Facility Total Building Electric Demand Power [W] !Hourly
518,1,Whole Building,Facility Total HVAC Electric Demand Power [W] !Hourly
519,1,Whole Building,Facility Total Electric Demand Power [W] !Hourly
520,1,WEST ZONE,Zone Oscillating Temperatures Time [hr] !Hourly
521,1,EAST ZONE,Zone Oscillating Temperatures Time [hr] !Hourly
522,1,WEST PLENUM,Zone Oscillating Temperatures Time [hr] !Hourly
523,1,EAST PLENUM,Zone Oscillating Temperatures Time [hr] !Hourly
524,1,Facility,Facility Any Zone Oscillating Temperatures Time [hr] !Hourly
525,1,WEST ZONE,Zone Heating Setpoint Not Met Time [hr] !Hourly
526,1,WEST ZONE,Zone Heating Setpoint Not Met While Occupied Time [hr] !Hourly
527,1,WEST ZONE,Zone Cooling Setpoint Not Met Time [hr] !Hourly
528,1,WEST ZONE,Zone Cooling Setpoint Not Met While Occupied Time [hr] !Hourly
529,1,EAST ZONE,Zone Heating Setpoint Not Met Time [hr] !Hourly
530,1,EAST ZONE,Zone Heating Setpoint Not Met While Occupied Time [hr] !Hourly
531,1,EAST ZONE,Zone Cooling Setpoint Not Met Time [hr] !Hourly
532,1,EAST ZONE,Zone Cooling Setpoint Not Met While Occupied Time [hr] !Hourly
533,1,WEST PLENUM,Zone Heating Setpoint Not Met Time [hr] !Hourly
534,1,WEST PLENUM,Zone Heating Setpoint Not Met While Occupied Time [hr] !Hourly
535,1,WEST PLENUM,Zone Cooling Setpoint Not Met Time [hr] !Hourly
536,1,WEST PLENUM,Zone Cooling Setpoint Not Met While Occupied Time [hr] !Hourly
537,1,EAST PLENUM,Zone Heating Setpoint Not Met Time [hr] !Hourly
538,1,EAST PLENUM,Zone Heating Setpoint Not Met While Occupied Time [hr] !Hourly
539,1,EAST PLENUM,Zone Cooling Setpoint Not Met Time [hr] !Hourly
540,1,EAST PLENUM,Zone Cooling Setpoint Not Met While Occupied Time [hr] !Hourly
541,1,WEST ZONE VAV SYSTEM,Zone Air Terminal VAV Damper Position [] !Hourly
542,1,WEST ZONE VAV SYSTEM,Zone Air Terminal Minimum Air Flow Fraction [] !Hourly
543,1,WEST ZONE VAV SYSTEM,Zone Air Terminal Outdoor Air Volume Flow Rate [m3/s] !Hourly
544,1,EAST ZONE VAV SYSTEM,Zone Air Terminal VAV Damper Position [] !Hourly
545,1,EAST ZONE VAV SYSTEM,Zone Air Terminal Minimum Air Flow Fraction [] !Hourly
546,1,EAST ZONE VAV SYSTEM,Zone Air Terminal Outdoor Air Volume Flow Rate [m3/s] !Hourly
599,1,WEST ZONE CW COOLING COIL,Cooling Coil Total Cooling Rate [W] !TimeStep
600,1,WEST ZONE CW COOLING COIL,Cooling Coil Sensible Cooling Rate [W] !TimeStep
603,1,EAST ZONE CW COOLING COIL,Cooling Coil Total Cooling Rate [W] !TimeStep
604,1,EAST ZONE CW COOLING COIL,Cooling Coil Sensible Cooling Rate [W] !TimeStep
605,1,WEST ZONE SUPPLY FAN,Fan Electric Power [W] !Hourly
606,1,WEST ZONE SUPPLY FAN,Fan Rise in Air Temperature [deltaC] !Hourly
607,1,WEST ZONE SUPPLY FAN,Fan Heat Gain to Air [W] !Hourly
608,1,WEST ZONE SUPPLY FAN,Fan Electric Energy [J] !Hourly
639,1,WEST ZONE SUPPLY FAN,Fan Air Mass Flow Rate [kg/s] !Hourly
640,1,EAST ZONE SUPPLY FAN,Fan Electric Power [W] !Hourly
641,1,EAST ZONE SUPPLY FAN,Fan Rise in Air Temperature [deltaC] !Hourly
642,1,EAST ZONE SUPPLY FAN,Fan Heat Gain to Air [W] !Hourly
643,1,EAST ZONE SUPPLY FAN,Fan Electric Energy [J] !Hourly
644,1,EAST ZONE SUPPLY FAN,Fan Air Mass Flow Rate [kg/s] !Hourly
645,1,WEST DATA CENTER IEC,Evaporative Cooler Total Stage Effectiveness [] !TimeStep
646,1,WEST DATA CENTER IEC,Evaporative Cooler Operating Mode Status [] !TimeStep
647,1,EAST DATA CENTER IEC,Evaporative Cooler Total Stage Effectiveness [] !TimeStep
648,1,EAST DATA CENTER IEC,Evaporative Cooler Operating Mode Status [] !TimeStep
649,1,WEST DATA CENTER DEC,Evaporative Cooler Stage Effectiveness [] !TimeStep
650,1,EAST DATA CENTER DEC,Evaporative Cooler Stage Effectiveness [] !TimeStep
662,1,WEST DATA CENTER IEC,Evaporative Cooler Electric Power [W] !TimeStep
663,1,WEST DATA CENTER IEC,Evaporative Cooler Water Volume [m3] !TimeStep
726,1,EAST DATA CENTER IEC,Evaporative Cooler Electric Power [W] !TimeStep
727,1,EAST DATA CENTER IEC,Evaporative Cooler Water Volume [m3] !TimeStep
730,1,WEST DATA CENTER DEC,Evaporative Cooler Electric Power [W] !TimeStep
731,1,WEST DATA CENTER DEC,Evaporative Cooler Water Volume [m3] !TimeStep
734,1,EAST DATA CENTER DEC,Evaporative Cooler Electric Power [W] !TimeStep
735,1,EAST DATA CENTER DEC,Evaporative Cooler Water Volume [m3] !TimeStep
737,1,WEST DX COOLING COIL,Cooling Coil Total Cooling Rate [W] !TimeStep
739,1,WEST DX COOLING COIL,Cooling Coil Sensible Cooling Rate [W] !TimeStep
741,1,EAST DX COOLING COIL,Cooling Coil Total Cooling Rate [W] !TimeStep
743,1,EAST DX COOLING COIL,Cooling Coil Sensible Cooling Rate [W] !TimeStep
766,1,CHILLER,Chiller Evaporator Cooling Rate [W] !Hourly
788,1,CHILLER,Chiller Evaporator Inlet Temperature [C] !Hourly
789,1,CHILLER,Chiller Evaporator Outlet Temperature [C] !Hourly
790,1,CHILLER,Chiller Condenser Heat Transfer Rate [W] !Hourly
802,1,CHILLER,Chiller Condenser Inlet Temperature [C] !Hourly
803,1,CHILLER,Chiller Condenser Outlet Temperature [C] !Hourly
892,1,WEST ZONE INLET NODE,System Node Temperature [C] !TimeStep
893,1,WEST ZONE INLET NODE,System Node Mass Flow Rate [kg/s] !TimeStep
894,1,WEST OUTSIDE AIR INLET NODE,System Node Temperature [C] !TimeStep
895,1,WEST OUTSIDE AIR INLET NODE,System Node Mass Flow Rate [kg/s] !TimeStep
896,1,WEST IEC SECONDARY AIR INLET NODE,System Node Temperature [C] !TimeStep
897,1,WEST IEC SECONDARY AIR INLET NODE,System Node Mass Flow Rate [kg/s] !TimeStep
898,1,WEST ZONE DEC OUTLET NODE,System Node Temperature [C] !TimeStep
899,1,WEST ZONE DEC OUTLET NODE,System Node Setpoint Temperature [C] !TimeStep
900,1,WEST ZONE IEC OUTLET NODE,System Node Temperature [C] !TimeStep
901,1,WEST ZONE IEC OUTLET NODE,System Node Setpoint Temperature [C] !TimeStep
902,1,WEST ZONE CCOIL AIR OUTLET NODE,System Node Temperature [C] !TimeStep
903,1,WEST ZONE CCOIL AIR OUTLET NODE,System Node Setpoint Temperature [C] !TimeStep
904,1,WEST AIR LOOP OUTLET NODE,System Node Temperature [C] !TimeStep
905,1,WEST AIR LOOP OUTLET NODE,System Node Setpoint Temperature [C] !TimeStep
906,1,EAST ZONE INLET NODE,System Node Temperature [C] !TimeStep
907,1,EAST ZONE INLET NODE,System Node Mass Flow Rate [kg/s] !TimeStep
908,1,EAST OUTSIDE AIR INLET NODE,System Node Temperature [C] !TimeStep
909,1,EAST OUTSIDE AIR INLET NODE,System Node Mass Flow Rate [kg/s] !TimeStep
910,1,EAST IEC SECONDARY AIR INLET NODE,System Node Temperature [C] !TimeStep
911,1,EAST IEC SECONDARY AIR INLET NODE,System Node Mass Flow Rate [kg/s] !TimeStep
912,1,EAST ZONE DEC OUTLET NODE,System Node Temperature [C] !TimeStep
913,1,EAST ZONE DEC OUTLET NODE,System Node Setpoint Temperature [C] !TimeStep
914,1,EAST ZONE IEC OUTLET NODE,System Node Temperature [C] !TimeStep
915,1,EAST ZONE IEC OUTLET NODE,System Node Setpoint Temperature [C] !TimeStep
916,1,EAST ZONE CCOIL AIR OUTLET NODE,System Node Temperature [C] !TimeStep
917,1,EAST ZONE CCOIL AIR OUTLET NODE,System Node Setpoint Temperature [C] !TimeStep
918,1,EAST AIR LOOP OUTLET NODE,System Node Temperature [C] !TimeStep
919,1,EAST AIR LOOP OUTLET NODE,System Node Setpoint Temperature [C] !TimeStep
920,1,WEST ZONE RETURN AIR NODE,System Node Temperature [C] !TimeStep
921,1,WEST ZONE RETURN AIR NODE,System Node Mass Flow Rate [kg/s] !TimeStep
922,1,WEST ZONE MIXED AIR NODE,System Node Temperature [C] !TimeStep
923,1,WEST ZONE MIXED AIR NODE,System Node Mass Flow Rate [kg/s] !TimeStep
924,1,WEST ZONE SUPPLY FAN OUTLET NODE,System Node Temperature [C] !TimeStep
925,1,EAST ZONE SUPPLY FAN OUTLET NODE,System Node Temperature [C] !TimeStep
926,1,WEST IEC SECONDARY AIR OUTLET NODE,System Node Temperature [C] !TimeStep
927,1,WEST IEC SECONDARY AIR OUTLET NODE,System Node Mass Flow Rate [kg/s] !TimeStep
End of Data Dictionary
1,WHOLEYEARDAY,  37.62,-122.40,  -8.00,   2.00
2,1, 1, 1, 0, 1, 0.00,15.00,Tuesday
6,6.825
239,1.0300298866314462
312,23.666989501915987
313,29.210571881581655
349,23.925082149134889
350,27.193645717593705
599,0.0
600,0.0
603,0.0
604,0.0
645,0.1287250548481313
647,0.0
649,0.5599999999999998
650,0.6999999999999997
662,12.569914006421829
663,0.0
726,0.0
727,0.0
730,7.545686666025254
731,0.0028159757889874229
734,0.0
735,0.0
737,0.0
739,0.0
741,0.0
743,0.0
892,17.68557633815498
893,2.6771973333333336
894,6.825
895,0.497283243293549
896,6.825
897,0.5036760452496071
898,19.213467646254729
899,23.94947953333334
900,18.01739181535364
901,23.94947953333334
902,18.01739181535364
903,23.94947953333334
904,18.01739181535364
905,23.94947953333334
906,21.985575381062636
907,6.33768314731681
908,6.825
909,0.0
910,6.825
911,0.0
912,24.002121364695328
913,37.39821253333333
914,24.002121364695328
915,37.39821253333333
916,24.002121364695328
917,37.39821253333333
918,24.002121364695328
919,37.39821253333333
920,23.656465868967794
921,2.6771973333333336
922,20.613918832572275
923,2.6771973333333336
924,20.982188119751059
925,24.002121364695328
926,8.193425217995414
927,0.5036760452496071
646,0.2
648,0.0
2,1, 1, 1, 0, 1,15.00,30.00,Tuesday
6,6.95
239,1.0849378585947558
312,25.19225333732347
313,31.3704561259381
349,33.04220901949918
350,17.856456085962486
599,0.0
600,0.0
603,0.0
604,0.0
645,0.1571044496050787
647,0.0
649,0.41999999999999995
650,0.6999999999999997
662,112.52246321095244
663,0.0
726,0.0
727,0.0
730,9.46356269843217
731,0.003026906558840415
734,2.82334531870683
735,0.0036257126956674606
737,635.5284268474924
739,25.195354910942
741,0.0
743,0.0
892,16.256762028350065
893,3.433122512344513
894,6.9499999999999979
895,1.504351565030178
896,6.9499999999999979
897,1.0599653085835157
898,16.0434079281606
899,18.4364256
900,14.676614142643935
901,18.4364256
902,14.664609778184893
903,18.4364256
904,14.664609778184893
905,18.4364256
906,26.714411023859719
907,6.392831778319564
908,6.9499999999999979
909,0.5798784368479631
910,6.9499999999999979
911,0.0
912,29.08714667243786
913,34.57462193333333
914,29.08714667243786
915,34.57462193333333
916,29.08714667243786
917,34.57462193333333
918,29.08714667243786
919,34.57462193333333
920,25.129425575443645
921,3.433122512344513
922,17.6324704254165
923,3.433122512344513
924,17.998434250703345
925,30.083695999088716
926,8.842074372821191
927,1.0599653085835157
646,0.3333333333333333
648,0.0
2,1, 1, 1, 0, 1,30.00,45.00,Tuesday
6,7.075
239,1.0334306636974187
312,23.03289483509044
313,39.34538485148851
349,39.593646036829458
350,16.53225171191782
599,0.0
600,0.0
603,0.05231574906687407
604,0.05231574906382786
645,0.1702925280970206
647,0.0466603709126208
649,0.5133333333333332
650,0.41999999999999995
662,35.746078338114077
663,0.0
726,2.428068626892549
727,0.0
730,9.365126581117009
731,0.003426069310578704
734,8.39825628813363
735,0.010632894574948836
737,0.0
739,0.0
741,0.0
743,0.0
892,16.39662883223535
893,2.5066888
894,7.075
895,0.4045457770818547
896,7.075
897,0.7691698277385699
898,18.025341386421549
899,22.848399133333336
900,16.29799188835864
901,22.848399133333336
902,16.29799188835864
903,22.848399133333336
904,16.29799188835864
905,22.848399133333336
906,28.37741578798148
907,6.366802444986231
908,7.075
909,1.1451810426680913
910,7.075
911,0.2779286642981485
912,30.122434338162067
913,32.947343000000007
914,29.312263783373035
915,32.947343000000007
916,29.312263783373035
917,32.947343000000007
918,29.31225643816045
919,32.947343000000007
920,23.196793558465659
921,2.5066888
922,19.565460174230294
923,2.5066888
924,19.97322983959097
925,33.33703826148448
926,9.059975578670518
927,0.7691698277385699
646,0.26666666666666669
648,0.2
2,1, 1, 1, 0, 1,45.00,60.00,Tuesday
6,7.2
239,1.0248834572889419
312,25.067892636645277
313,36.644056447876838
349,46.04587793065822
350,12.80141720760466
599,0.0
600,0.0
603,0.0
604,0.0
645,0.15959027805701768
647,0.031481914935511407
649,0.46666666666666659
650,0.5133333333333332
662,214.03430189703995
663,0.0
726,0.28416656075675758
727,0.0
730,9.924880610898303
731,0.003447137606875222
734,3.628908708581214
735,0.0039248385623929129
737,2727.54634904866
739,216.30233757762029
741,0.0
743,0.0
892,15.78955998132767
893,2.880243533333333
894,7.200000000000003
895,1.031793071829081
896,7.200000000000003
897,1.5871233024248884
898,16.77104541665374
899,21.622032133333336
900,15.1826857735469
901,21.622032133333336
902,15.116890183065318
903,21.622032133333336
904,15.116890183065318
905,21.622032133333336
906,29.687670215641213
907,5.579663742655651
908,7.200000000000003
909,1.6671788881250487
910,7.200000000000003
911,0.12062195396077699
912,32.97631610734291
913,34.75020106666666
914,32.302248225931688
915,34.75020106666666
916,32.302248225931688
917,34.75020106666666
918,32.302248225931688
919,34.75020106666666
920,24.886585056793483
921,2.880243533333333
922,18.46893779673957
923,2.880243533333333
924,18.85264698925679
925,34.22179033772451
926,9.247184117543466
927,1.5871233024248884
646,0.3333333333333333
648,0.2
2,1, 1, 1, 0, 1, 0.00,60.00,Tuesday
133,14545.827768641895
134,10828.28217565312
135,2537.4109944295005
136,13936.849545599995
137,10219.334400000002
138,2537.4109944295005
139,27911.52093872452
173,3.9345372665258528
174,15.327732965279239
175,7.13680890801327
176,0.5836439627190224
177,23.131379980551395
178,0.10054162359234828
179,1.0
180,0.0
181,0.0
182,0.0
183,0.0
184,0.0
185,1.0
186,0.0
187,0.0
188,0.0
189,0.0
190,0.0
191,-19.416356037280978
192,14545.827768641895
193,10828.28217565312
194,2537.4109944295005
195,13936.849545599995
196,10219.334400000002
197,2537.4109944295005
198,27911.52093872452
199,40112.205212280925
200,35964.14250115588
201,7607.634771343679
202,15546.354479999996
203,11399.520000000002
204,7607.634771343679
205,83683.98248478049
209,12.424399275550782
210,26.851851986430775
211,6.017221382770062
212,0.29358608637242197
213,34.28418490595559
214,0.07515723934133259
215,1.0
216,0.25
217,0.0
218,0.0
219,0.0
220,0.0
221,1.0
222,0.3143679459579243
223,0.0
224,0.0
225,0.0
226,0.0
227,-19.70641391362758
228,40112.205212280925
229,35964.14250115588
230,7607.634771343679
231,15546.354479999996
232,11399.520000000002
233,7607.634771343679
234,83683.98248478049
315,20.0
316,23.0
352,20.0
353,23.0
387,0.0
388,0.0
422,0.0
423,0.0
525,0.0
526,0.0
527,0.75
528,0.0
529,0.0
530,0.0
531,1.0
532,0.0
533,0.0
534,0.0
535,0.0
536,0.0
537,0.0
538,0.0
539,0.0
540,0.0
314,4.0
351,4.0
386,0.0
421,0.0
517,111623.90342350499
518,3560.876554292853
519,115184.77997779785
520,0.0
521,0.0
522,0.06666666666666667
523,0.016666666666666668
524,0.08333333333333333
541,0.4607672890998982
542,0.4
543,0.7138512127850303
544,0.8827057780535106
545,0.4
546,0.7043548654599906
605,1128.792168609631
606,0.38142799258588197
607,1015.9129517486676
608,4063651.806994671
639,2.8743130447527949
640,2066.980056475926
641,0.2951855454807301
642,1860.2820508283337
643,7441128.203313333
644,6.169245278319564
766,0.0
788,10.204276707480739
789,10.204276707480739
790,0.0
802,9.932642824349
803,9.932642824349
2,1, 1, 1, 0, 2, 0.00,15.00,Tuesday
6,7.2
239,1.047958764731435
312,28.058056220111444
313,31.1690761124471
349,44.40942059320656
350,13.73281965190515
599,0.0
600,0.0
603,0.150756527285684
604,0.15075652729125339
645,0.14153614041055208
647,0.03377665819835151
649,0.4499999999999999
650,0.19999999999999999
662,104.53452546962606
663,0.0
726,0.2764467204048079
727,0.0
730,9.1962109443845
731,0.002369493275204227
734,1.3991344559803459
735,0.002094601248625293
737,0.0
739,0.0
741,0.0
743,0.0
892,17.7868497078239
893,2.5283399999999998
894,7.199999999999999
895,1.058105056382986
896,7.199999999999999
897,0.8475834389933358
898,18.536750428655695
899,20.336642785714287
900,17.052059814593674
901,20.336642785714287
902,17.052059814593674
903,20.336642785714287
904,17.052059814593674
905,20.336642785714287
906,33.47434737640885
907,6.505930843902017
908,7.199999999999999
909,1.3119062778075393
910,7.199999999999999
911,0.12924521490811723
912,36.815544798974659
913,37.827478785714287
914,36.15831872123609
915,37.827478785714287
916,36.15831872123609
917,37.827478785714287
918,36.15829754603317
919,37.827478785714287
920,27.851709756065416
921,2.5283399999999998
922,20.30849520409465
923,2.5283399999999998
924,20.710672045707854
925,37.355141314185029
926,9.286935146880046
927,0.8475834389933358
646,0.28571428571428567
648,0.28571428571428567
2,1, 1, 1, 0, 2,15.00,30.00,Tuesday
6,7.2
239,1.0201983869393159
312,26.18596463619674
313,34.12092728785145
349,45.97933859557132
350,11.600051997754063
599,0.0
600,0.0
603,1668.8013129819876
604,1668.8013129821
645,0.06895174115089334
647,0.17477920610620213
649,0.5000000000000006
650,0.3500000000000004
662,0.8975818135097399
663,0.0
726,161.98581217126165
727,0.0
730,8.661461687846817
731,0.0023312154413847408
734,1.2080509303750696
735,0.0011129065255854586
737,0.0
739,0.0
741,0.0
743,0.0
892,17.291773859603148
893,2.559216642857146
894,7.200000000000011
895,1.0402444071835786
896,7.200000000000011
897,0.14731652326298648
898,17.956252006462763
899,22.07693350000003
900,17.41675884238365
901,22.07693350000003
902,17.41675884238365
903,22.07693350000003
904,17.41675884238365
905,22.07693350000003
906,28.60338052929922
907,6.33313073426212
908,7.200000000000011
909,1.8557453498761707
910,7.200000000000011
911,1.7336726334462967
912,34.14833324606731
913,32.6560118571429
914,28.417677230969173
915,32.6560118571429
916,28.417677230969173
917,32.6560118571429
918,28.18285747987281
919,32.6560118571429
920,26.2386755713314
921,2.559216642857146
922,19.444072701904195
923,2.559216642857146
924,19.830110924035976
925,34.576060614104509