Program Version,EnergyPlus, Version 8.8.0-Unknown, YMD=2019.07.12 12:47
1,5,Environment Title[],Latitude[deg],Longitude[deg],Time Zone[],Elevation[m]
2,6,Day of Simulation[],Month[],Day of Month[],DST Indicator[1=yes 0=no],Hour[],StartMinute[],EndMinute[],DayType
3,3,Cumulative Day of Simulation[],Month[],Day of Month[],DST Indicator[1=yes 0=no],DayType  ! When Daily Report Variables Requested
4,2,Cumulative Days of Simulation[],Month[]  ! When Monthly Report Variables Requested
5,1,Cumulative Days of Simulation[] ! When Run Period Report Variables Requested
6,1,Environment,Site Outdoor Air Drybulb Temperature [C] !TimeStep
133,1,WESTDATACENTER_EQUIP,ITE CPU Electric Power [W] !Hourly
134,1,WESTDATACENTER_EQUIP,ITE Fan Electric Power [W] !Hourly
135,1,WESTDATACENTER_EQUIP,ITE UPS Electric Power [W] !Hourly
136,1,WESTDATACENTER_EQUIP,ITE CPU Electric Power at Design Inlet Conditions [W] !Hourly
137,1,WESTDATACENTER_EQUIP,ITE Fan Electric Power at Design Inlet Conditions [W] !Hourly
138,1,WESTDATACENTER_EQUIP,ITE UPS Heat Gain to Zone Rate [W] !Hourly
139,1,WESTDATACENTER_EQUIP,ITE Total Heat Gain to Zone Rate [W] !Hourly
173,1,WESTDATACENTER_EQUIP,ITE Standard Density Air Volume Flow Rate [m3/s] !Hourly
174,1,WESTDATACENTER_EQUIP,ITE Air Inlet Dry-Bulb Temperature [C] !Hourly
175,1,WESTDATACENTER_EQUIP,ITE Air Inlet Dewpoint Temperature [C] !Hourly
176,1,WESTDATACENTER_EQUIP,ITE Air Inlet Relative Humidity [%] !Hourly
177,1,WESTDATACENTER_EQUIP,ITE Air Outlet Dry-Bulb Temperature [C] !Hourly
178,1,WESTDATACENTER_EQUIP,ITE Supply Heat Index [] !Hourly
179,1,WESTDATACENTER_EQUIP,ITE Air Inlet Operating Range Exceeded Time [hr] !Hourly
180,1,WESTDATACENTER_EQUIP,ITE Air Inlet Dry-Bulb Temperature Above Operating Range Time [hr] !Hourly
181,1,WESTDATACENTER_EQUIP,ITE Air Inlet Dry-Bulb Temperature Below Operating Range Time [hr] !Hourly
182,1,WESTDATACENTER_EQUIP,ITE Air Inlet Dewpoint Temperature Above Operating Range Time [hr] !Hourly
183,1,WESTDATACENTER_EQUIP,ITE Air Inlet Dewpoint Temperature Below Operating Range Time [hr] !Hourly
184,1,WESTDATACENTER_EQUIP,ITE Air Inlet Relative Humidity Above Operating Range Time [hr] !Hourly
185,1,WESTDATACENTER_EQUIP,ITE Air Inlet Relative Humidity Below Operating Range Time [hr] !Hourly
186,1,WESTDATACENTER_EQUIP,ITE Air Inlet Dry-Bulb Temperature Difference Above Operating Range [deltaC] !Hourly
187,1,WESTDATACENTER_EQUIP,ITE Air Inlet Dry-Bulb Temperature Difference Below Operating Range [deltaC] !Hourly
188,1,WESTDATACENTER_EQUIP,ITE Air Inlet Dewpoint Temperature Difference Above Operating Range [deltaC] !Hourly
189,1,WESTDATACENTER_EQUIP,ITE Air Inlet Dewpoint Temperature Difference Below Operating Range [deltaC] !Hourly
190,1,WESTDATACENTER_EQUIP,ITE Air Inlet Relative Humidity Difference Above Operating Range [%] !Hourly
191,1,WESTDATACENTER_EQUIP,ITE Air Inlet Relative Humidity Difference Below Operating Range [%] !Hourly
192,1,WEST ZONE,Zone ITE CPU Electric Power [W] !Hourly
193,1,WEST ZONE,Zone ITE Fan Electric Power [W] !Hourly
194,1,WEST ZONE,Zone ITE UPS Electric Power [W] !Hourly
195,1,WEST ZONE,Zone ITE CPU Electric Power at Design Inlet Conditions [W] !Hourly
196,1,WEST ZONE,Zone ITE Fan Electric Power at Design Inlet Conditions [W] !Hourly
197,1,WEST ZONE,Zone ITE UPS Heat Gain to Zone Rate [W] !Hourly
198,1,WEST ZONE,Zone ITE Total Heat Gain to Zone Rate [W] !Hourly
199,1,EASTDATACENTER_EQUIP,ITE CPU Electric Power [W] !Hourly
200,1,EASTDATACENTER_EQUIP,ITE Fan Electric Power [W] !Hourly
201,1,EASTDATACENTER_EQUIP,ITE UPS Electric Power [W] !Hourly
202,1,EASTDATACENTER_EQUIP,ITE CPU Electric Power at Design Inlet Conditions [W] !Hourly
203,1,EASTDATACENTER_EQUIP,ITE Fan Electric Power at Design Inlet Conditions [W] !Hourly
204,1,EASTDATACENTER_EQUIP,ITE UPS Heat Gain to Zone Rate [W] !Hourly
205,1,EASTDATACENTER_EQUIP,ITE Total Heat Gain to Zone Rate [W] !Hourly
209,1,EASTDATACENTER_EQUIP,ITE Standard Density Air Volume Flow Rate [m3/s] !Hourly
210,1,EASTDATACENTER_EQUIP,ITE Air Inlet Dry-Bulb Temperature [C] !Hourly
211,1,EASTDATACENTER_EQUIP,ITE Air Inlet Dewpoint Temperature [C] !Hourly
212,1,EASTDATACENTER_EQUIP,ITE Air Inlet Relative Humidity [%] !Hourly
213,1,EASTDATACENTER_EQUIP,ITE Air Outlet Dry-Bulb Temperature [C] !Hourly
214,1,EASTDATACENTER_EQUIP,ITE Supply Heat Index [] !Hourly
215,1,EASTDATACENTER_EQUIP,ITE Air Inlet Operating Range Exceeded Time [hr] !Hourly
216,1,EASTDATACENTER_EQUIP,ITE Air Inlet Dry-Bulb Temperature Above Operating Range Time [hr] !Hourly
217,1,EASTDATACENTER_EQUIP,ITE Air Inlet Dry-Bulb Temperature Below Operating Range Time [hr] !Hourly
218,1,EASTDATACENTER_EQUIP,ITE Air Inlet Dewpoint Temperature Above Operating Range Time [hr] !Hourly
219,1,EASTDATACENTER_EQUIP,ITE Air Inlet Dewpoint Temperature Below Operating Range Time [hr] !Hourly
220,1,EASTDATACENTER_EQUIP,ITE Air Inlet Relative Humidity Above Operating Range Time [hr] !Hourly
221,1,EASTDATACENTER_EQUIP,ITE Air Inlet Relative Humidity Below Operating Range Time [hr] !Hourly
222,1,EASTDATACENTER_EQUIP,ITE Air Inlet Dry-Bulb Temperature Difference Above Operating Range [deltaC] !Hourly
223,1,EASTDATACENTER_EQUIP,ITE Air Inlet Dry-Bulb Temperature Difference Below Operating Range [deltaC] !Hourly
224,1,EASTDATACENTER_EQUIP,ITE Air Inlet Dewpoint Temperature Difference Above Operating Range [deltaC] !Hourly
225,1,EASTDATACENTER_EQUIP,ITE Air Inlet Dewpoint Temperature Difference Below Operating Range [deltaC] !Hourly
226,1,EASTDATACENTER_EQUIP,ITE Air Inlet Relative Humidity Difference Above Operating Range [%] !Hourly
227,1,EASTDATACENTER_EQUIP,ITE Air Inlet Relative Humidity Difference Below Operating Range [%] !Hourly
228,1,EAST ZONE,Zone ITE CPU Electric Power [W] !Hourly
229,1,EAST ZONE,Zone ITE Fan Electric Power [W] !Hourly
230,1,EAST ZONE,Zone ITE UPS Electric Power [W] !Hourly
231,1,EAST ZONE,Zone ITE CPU Electric Power at Design Inlet Conditions [W] !Hourly
232,1,EAST ZONE,Zone ITE Fan Electric Power at Design Inlet Conditions [W] !Hourly
233,1,EAST ZONE,Zone ITE UPS Heat Gain to Zone Rate [W] !Hourly
234,1,EAST ZONE,Zone ITE Total Heat Gain to Zone Rate [W] !Hourly
239,1,EMS,Power Utilization Effectiveness [] !TimeStep
312,1,WEST ZONE,Zone Air Temperature [C] !TimeStep
313,1,WEST ZONE,Zone Air Relative Humidity [%] !TimeStep
314,1,WEST ZONE,Zone Thermostat Control Type [] !Hourly
315,1,WEST ZONE,Zone Thermostat Heating Setpoint Temperature [C] !Hourly
316,1,WEST ZONE,Zone Thermostat Cooling Setpoint Temperature [C] !Hourly
349,1,EAST ZONE,Zone Air Temperature [C] !TimeStep
350,1,EAST ZONE,Zone Air Relative Humidity [%] !TimeStep
351,1,EAST ZONE,Zone Thermostat Control Type [] !Hourly
352,1,EAST ZONE,Zone Thermostat Heating Setpoint Temperature [C] !Hourly
353,1,EAST ZONE,Zone Thermostat Cooling Setpoint Temperature [C] !Hourly
386,1,WEST PLENUM,Zone Thermostat Control Type [] !Hourly
387,1,WEST PLENUM,Zone Thermostat Heating Setpoint Temperature [C] !Hourly
388,1,WEST PLENUM,Zone Thermostat Cooling Setpoint Temperature [C] !Hourly
421,1,EAST PLENUM,Zone Thermostat Control Type [] !Hourly
422,1,EAST PLENUM,Zone Thermostat Heating Setpoint Temperature [C] !Hourly
423,1,EAST PLENUM,Zone Thermostat Cooling Setpoint Temperature [C] !Hourly
517,1,Whole Building,Facility Total Building Electric Demand Power [W] !Hourly
518,1,Whole Building,Facility Total HVAC Electric Demand Power [W] !Hourly
519,1,Whole Building,Facility Total Electric Demand Power [W] !Hourly
520,1,WEST ZONE,Zone Oscillating Temperatures Time [hr] !Hourly
521,1,EAST ZONE,Zone Oscillating Temperatures Time [hr] !Hourly
522,1,WEST PLENUM,Zone Oscillating Temperatures Time [hr] !Hourly
523,1,EAST PLENUM,Zone Oscillating Temperatures Time [hr] !Hourly
524,1,Facility,Facility Any Zone Oscillating Temperatures Time [hr] !Hourly
525,1,WEST ZONE,Zone Heating Setpoint Not Met Time [hr] !Hourly
526,1,WEST ZONE,Zone Heating Setpoint Not Met While Occupied Time [hr] !Hourly
527,1,WEST ZONE,Zone Cooling Setpoint Not Met Time [hr] !Hourly
528,1,WEST ZONE,Zone Cooling Setpoint Not Met While Occupied Time [hr] !Hourly
529,1,EAST ZONE,Zone Heating Setpoint Not Met Time [hr] !Hourly
530,1,EAST ZONE,Zone Heating Setpoint Not Met While Occupied Time [hr] !Hourly
531,1,EAST ZONE,Zone Cooling Setpoint Not Met Time [hr] !Hourly
532,1,EAST ZONE,Zone Cooling Setpoint Not Met While Occupied Time [hr] !Hourly
533,1,WEST PLENUM,Zone Heating Setpoint Not Met Time [hr] !Hourly
534,1,WEST PLENUM,Zone Heating Setpoint Not Met While Occupied Time [hr] !Hourly
535,1,WEST PLENUM,Zone Cooling Setpoint Not Met Time [hr] !Hourly
536,1,WEST PLENUM,Zone Cooling Setpoint Not Met While Occupied Time [hr] !Hourly
537,1,EAST PLENUM,Zone Heating Setpoint Not Met Time [hr] !Hourly
538,1,EAST PLENUM,Zone Heating Setpoint Not Met While Occupied Time [hr] !Hourly
539,1,EAST PLENUM,Zone Cooling Setpoint Not Met Time [hr] !Hourly
540,1,EAST PLENUM,Zone Cooling Setpoint Not Met While Occupied Time [hr] !Hourly
541,1,WEST ZONE VAV SYSTEM,Zone Air Terminal VAV Damper Position [] !Hourly
542,1,WEST ZONE VAV SYSTEM,Zone Air Terminal Minimum Air Flow Fraction [] !Hourly
543,1,WEST ZONE VAV SYSTEM,Zone Air Terminal Outdoor Air Volume Flow Rate [m3/s] !Hourly
544,1,EAST ZONE VAV SYSTEM,Zone Air Terminal VAV Damper Position [] !Hourly
545,1,EAST ZONE VAV SYSTEM,Zone Air Terminal Minimum Air Flow Fraction [] !Hourly
546,1,EAST ZONE VAV SYSTEM,Zone Air Terminal Outdoor Air Volume Flow Rate [m3/s] !Hourly
599,1,WEST ZONE CW COOLING COIL,Cooling Coil Total Cooling Rate [W] !TimeStep
600,1,WEST ZONE CW COOLING COIL,Cooling Coil Sensible Cooling Rate [W] !TimeStep
603,1,EAST ZONE CW COOLING COIL,Cooling Coil Total Cooling Rate [W] !TimeStep
604,1,EAST ZONE CW COOLING COIL,Cooling Coil Sensible Cooling Rate [W] !TimeStep
605,1,WEST ZONE SUPPLY FAN,Fan Electric Power [W] !Hourly
606,1,WEST ZONE SUPPLY FAN,Fan Rise in Air Temperature [deltaC] !Hourly
607,1,WEST ZONE SUPPLY FAN,Fan Heat Gain to Air [W] !Hourly
608,1,WEST ZONE SUPPLY FAN,Fan Electric Energy [J] !Hourly
639,1,WEST ZONE SUPPLY FAN,Fan Air Mass Flow Rate [kg/s] !Hourly
640,1,EAST ZONE SUPPLY FAN,Fan Electric Power [W] !Hourly
641,1,EAST ZONE SUPPLY FAN,Fan Rise in Air Temperature [deltaC] !Hourly
642,1,EAST ZONE SUPPLY FAN,Fan Heat Gain to Air [W] !Hourly
643,1,EAST ZONE SUPPLY FAN,Fan Electric Energy [J] !Hourly
644,1,EAST ZONE SUPPLY FAN,Fan Air Mass Flow Rate [kg/s] !Hourly
645,1,WEST DATA CENTER IEC,Evaporative Cooler Total Stage Effectiveness [] !TimeStep
646,1,WEST DATA CENTER IEC,Evaporative Cooler Operating Mode Status [] !TimeStep
647,1,EAST DATA CENTER IEC,Evaporative Cooler Total Stage Effectiveness [] !TimeStep
648,1,EAST DATA CENTER IEC,Evaporative Cooler Operating Mode Status [] !TimeStep
649,1,WEST DATA CENTER DEC,Evaporative Cooler Stage Effectiveness [] !TimeStep
650,1,EAST DATA CENTER DEC,Evaporative Cooler Stage Effectiveness [] !TimeStep
662,1,WEST DATA CENTER IEC,Evaporative Cooler Electric Power [W] !TimeStep
663,1,WEST DATA CENTER IEC,Evaporative Cooler Water Volume [m3] !TimeStep
726,1,EAST DATA CENTER IEC,Evaporative Cooler Electric Power [W] !TimeStep
727,1,EAST DATA CENTER IEC,Evaporative Cooler Water Volume [m3] !TimeStep
730,1,WEST DATA CENTER DEC,Evaporative Cooler Electric Power [W] !TimeStep
731,1,WEST DATA CENTER DEC,Evaporative Cooler Water Volume [m3] !TimeStep
734,1,EAST DATA CENTER DEC,Evaporative Cooler Electric Power [W] !TimeStep
735,1,EAST DATA CENTER DEC,Evaporative Cooler Water Volume [m3] !TimeStep
737,1,WEST DX COOLING COIL,Cooling Coil Total Cooling Rate [W] !TimeStep
739,1,WEST DX COOLING COIL,Cooling Coil Sensible Cooling Rate [W] !TimeStep
741,1,EAST DX COOLING COIL,Cooling Coil Total Cooling Rate [W] !TimeStep
743,1,EAST DX COOLING COIL,Cooling Coil Sensible Cooling Rate [W] !TimeStep
766,1,CHILLER,Chiller Evaporator Cooling Rate [W] !Hourly
788,1,CHILLER,Chiller Evaporator Inlet Temperature [C] !Hourly
789,1,CHILLER,Chiller Evaporator Outlet Temperature [C] !Hourly
790,1,CHILLER,Chiller Condenser Heat Transfer Rate [W] !Hourly
802,1,CHILLER,Chiller Condenser Inlet Temperature [C] !Hourly
803,1,CHILLER,Chiller Condenser Outlet Temperature [C] !Hourly
892,1,WEST ZONE INLET NODE,System Node Temperature [C] !TimeStep
893,1,WEST ZONE INLET NODE,System Node Mass Flow Rate [kg/s] !TimeStep
894,1,WEST OUTSIDE AIR INLET NODE,System Node Temperature [C] !TimeStep
895,1,WEST OUTSIDE AIR INLET NODE,System Node Mass Flow Rate [kg/s] !TimeStep
896,1,WEST IEC SECONDARY AIR INLET NODE,System Node Temperature [C] !TimeStep
897,1,WEST IEC SECONDARY AIR INLET NODE,System Node Mass Flow Rate [kg/s] !TimeStep
898,1,WEST ZONE DEC OUTLET NODE,System Node Temperature [C] !TimeStep
899,1,WEST ZONE DEC OUTLET NODE,System Node Setpoint Temperature [C] !TimeStep
900,1,WEST ZONE IEC OUTLET NODE,System Node Temperature [C] !TimeStep
901,1,WEST ZONE IEC OUTLET NODE,System Node Setpoint Temperature [C] !TimeStep
902,1,WEST ZONE CCOIL AIR OUTLET NODE,System Node Temperature [C] !TimeStep
903,1,WEST ZONE CCOIL AIR OUTLET NODE,System Node Setpoint Temperature [C] !TimeStep
904,1,WEST AIR LOOP OUTLET NODE,System Node Temperature [C] !TimeStep
905,1,WEST AIR LOOP OUTLET NODE,System Node Setpoint Temperature [C] !TimeStep
906,1,EAST ZONE INLET NODE,System Node Temperature [C] !TimeStep
907,1,EAST ZONE INLET NODE,System Node Mass Flow Rate [kg/s] !TimeStep
908,1,EAST OUTSIDE AIR INLET NODE,System Node Temperature [C] !TimeStep
909,1,EAST OUTSIDE AIR INLET NODE,System Node Mass Flow Rate [kg/s] !TimeStep
910,1,EAST IEC SECONDARY AIR INLET NODE,System Node Temperature [C] !TimeStep
911,1,EAST IEC SECONDARY AIR INLET NODE,System Node Mass Flow Rate [kg/s] !TimeStep
912,1,EAST ZONE DEC OUTLET NODE,System Node Temperature [C] !TimeStep
913,1,EAST ZONE DEC OUTLET NODE,System Node Setpoint Temperature [C] !TimeStep
914,1,EAST ZONE IEC OUTLET NODE,System Node Temperature [C] !TimeStep
915,1,EAST ZONE IEC OUTLET NODE,System Node Setpoint Temperature [C] !TimeStep
916,1,EAST ZONE CCOIL AIR OUTLET NODE,System Node Temperature [C] !TimeStep
917,1,EAST ZONE CCOIL AIR OUTLET NODE,System Node Setpoint Temperature [C] !TimeStep
918,1,EAST AIR LOOP OUTLET NODE,System Node Temperature [C] !TimeStep
919,1,EAST AIR LOOP OUTLET NODE,System Node Setpoint Temperature [C] !TimeStep
920,1,WEST ZONE RETURN AIR NODE,System Node Temperature [C] !TimeStep
921,1,WEST ZONE RETURN AIR NODE,System Node Mass Flow Rate [kg/s] !TimeStep
922,1,WEST ZONE MIXED AIR NODE,System Node Temperature [C] !TimeStep
923,1,WEST ZONE MIXED AIR NODE,System Node Mass Flow Rate [kg/s] !TimeStep
924,1,WEST ZONE SUPPLY FAN OUTLET NODE,System Node Temperature [C] !TimeStep
925,1,EAST ZONE SUPPLY FAN OUTLET NODE,System Node Temperature [C] !TimeStep
926,1,WEST IEC SECONDARY AIR OUTLET NODE,System Node Temperature [C] !TimeStep
927,1,WEST IEC SECONDARY AIR OUTLET NODE,System Node Mass Flow Rate [kg/s] !TimeStep
End of Data Dictionary
1,WHOLEYEARDAY,  37.62,-122.40,  -8.00,   2.00
2,1, 1, 1, 0, 1, 0.00,15.00,Tuesday
6,6.825
239,1.0300298866314462
312,20.42071067726683
313,36.83240682298944
349,23.91605385038449
350,27.53264136938916
599,0.0
600,0.0
603,0.0
604,0.0
645,0.15362345140705267
647,0.0
649,0.32666666666666668
650,0.6999999999999997
662,19.845642158280758
663,0.0
726,0.0
727,0.0
730,8.0
731,0.0027773272789991664
734,0.25111769746373616
735,0.00023003682994471696
737,0.0
739,0.0
741,0.0
743,0.0
892,13.775933691028249
893,3.01755248950559
894,6.825
895,1.2931003306239753
896,6.825
897,0.6186394964375632
898,13.467271861519589
899,16.138990333333337
900,12.424654720194465
901,16.138990333333337
902,12.424654720194465
903,16.138990333333337
904,12.424654720194465
905,16.138990333333337
906,21.83096471706515
907,5.73327264498623
908,6.825
909,0.0
910,6.825
911,0.0
912,23.932611567073598
913,35.55067113333333
914,23.932611567073598
915,35.55067113333333
916,23.932611567073598
917,35.55067113333333
918,23.932611567073598
919,35.55067113333333
920,20.506762425264779
921,3.01755248950559
922,14.532382097512967
923,3.01755248950559
924,14.90017755226313
925,23.993660124087467
926,8.711533910356036
927,0.6186394964375632
646,0.3333333333333333
648,0.0
2,1, 1, 1, 0, 1,15.00,30.00,Tuesday
6,6.95
239,1.067230341275253
312,22.024672264857235
313,36.45912458062835
349,34.748439126908319
350,15.806721631225232
599,0.0
600,0.0
603,0.0
604,0.0
645,0.19751747208291049
647,0.0
649,0.27999999999999999
650,0.6999999999999997
662,26.52967130936245
663,0.0
726,0.0
727,0.0
730,9.977923183302633
731,0.003070483413112895
734,2.2685790388959248
735,0.0034421777734796375
737,0.0
739,0.0
741,0.0
743,0.0
892,12.746501637511562
893,3.5223464000000006
894,6.9499999999999979
895,1.793662033120557
896,6.9499999999999979
897,0.9257847211946856
898,13.00206006121625
899,15.4683112
900,11.513384147642937
901,15.4683112
902,11.513384147642937
903,15.4683112
904,11.513384147642937
905,15.4683112
906,28.397057212328514
907,5.244103880650144
908,6.9499999999999979
909,0.2583033459406441
910,6.9499999999999979
911,0.0
912,32.049577516381457
913,37.52346373333333
914,32.049577516381457
915,37.52346373333333
916,32.049577516381457
917,37.52346373333333
918,32.049577516381457
919,37.52346373333333
920,21.879220083141548
921,3.5223464000000006
922,14.505132326711074
923,3.5223464000000006
924,14.832960123427942
925,32.97401553097904
926,9.318069294368245
927,0.9257847211946856
646,0.39999999999999999
648,0.0
2,1, 1, 1, 0, 1,30.00,45.00,Tuesday
6,7.075
239,1.0315587501760409
312,23.162569839334254
313,38.457137449538198
349,44.40226620943603
350,10.842366695803492
599,0.0
600,0.0
603,12.942052863919227
604,12.942052863919227
645,0.22230975069449306
647,0.0627834897186011
649,0.3733333333333333
650,0.6533333333333331
662,106.82874742947306
663,0.0
726,32.233962091881668
727,0.0
730,10.100914377594961
731,0.0029749547559047879
734,2.9067379176623677
735,0.004017254198472475
737,0.0
739,0.0
741,0.0
743,0.0
892,14.11808236467891
893,3.397743266666666
894,7.075
895,1.6285684648668389
896,7.075
897,1.2009037392855238
898,14.746339622232832
899,19.890274133333337
900,12.60595019048348
901,19.890274133333337
902,12.60595019048348
903,19.890274133333337
904,12.60595019048348
905,19.890274133333337
906,31.735180223734845
907,6.0227427783195639
908,7.075
909,1.2559797575305183
910,7.075
911,0.5239068360208894
912,35.08277194147769
913,35.29265706666667
914,33.260603686767989
915,35.29265706666667
916,33.260603686767989
917,35.29265706666667
918,33.25865906354851
919,35.29265706666667
920,23.119371336551674
921,3.397743266666666
922,16.382129586760248
923,3.397743266666666
924,16.71249581457942
925,36.463068550460729
926,9.11251553135292
927,1.2009037392855238
646,0.3333333333333333
648,0.13333333333333334
2,1, 1, 1, 0, 1,45.00,60.00,Tuesday
6,7.2
239,1.030379640538694
312,23.123860932202434
313,38.52284214207013
349,42.953180211338388
350,13.706471518198417
599,0.0
600,0.0
603,0.0
604,0.0
645,0.16863480778280516
647,0.055660902134181029
649,0.27999999999999999
650,0.2333333333333333
662,112.65446581569874
663,0.0
726,1.5270032020384957
727,0.0
730,8.854185402167819
731,0.00269611290068799
734,3.694130444766782
735,0.005542387785859957
737,581.031709610284
739,33.64401759332371
741,0.0
743,0.0
892,14.1631797727363
893,2.9215298895055898
894,7.200000000000003
895,1.4955187049696482
896,7.200000000000003
897,1.2097537252991553
898,14.324772894220168
899,18.447679933333334
900,12.927080892912209
901,18.447679933333334
902,12.90821444412538
903,18.447679933333334
904,12.90821444412538
905,18.447679933333334
906,31.672927855853368
907,5.79305324498623
908,7.200000000000003
909,1.1550148616127254
910,7.200000000000003
911,0.22465027320769744
912,35.190306963603877
913,36.7225822
914,33.854134005171797
915,36.7225822
916,33.854134005171797
917,36.7225822
918,33.854134005171797
919,36.7225822
920,22.893751207692909
921,2.9215298895055898
922,15.543706297394117
923,2.9215298895055898
924,15.92506881933846
925,36.724027799943517
926,8.74556434232316
927,1.2097537252991553
646,0.3333333333333333
648,0.39999999999999999
2,1, 1, 1, 0, 1, 0.00,60.00,Tuesday
133,16077.670158503977
134,12360.047977225124
135,2843.771813572909
136,13936.849545599995
137,10219.334400000002
138,2843.771813572909
139,31281.489949302006
173,4.485317125758863
174,16.15212245865427
175,7.222681238024956
176,0.5546148471672071
177,23.739292532623748
178,0.08367545391458596
179,1.0
180,0.0
181,0.0
182,0.0
183,0.0
184,0.0
185,1.0
186,0.0
187,0.0
188,0.0
189,0.0
190,0.0
191,-19.44538515283279
192,16077.670158503977
193,12360.047977225124
194,2843.771813572909
195,13936.849545599995
196,10219.334400000002
197,2843.771813572909
198,31281.489949302006
199,37367.15588931168
200,33219.230423790505
201,7058.638631310217
202,15546.354479999996
203,11399.520000000002
204,7058.638631310217
205,77645.0249444124
209,11.55962802840419
210,25.527496537647879
211,4.9923857950643
212,0.2972581459596861
213,32.94917793632874
214,0.08885681804110982
215,1.0
216,0.25
217,0.0
218,0.0
219,0.0
220,0.0
221,1.0
222,0.02611776526588372
223,0.0
224,0.0
225,0.0
226,0.0
227,-19.702741854040313
228,37367.15588931168
229,33219.230423790505
230,7058.638631310217
231,15546.354479999996
232,11399.520000000002
233,7058.638631310217
234,77645.0249444124
315,20.0
316,23.0
352,20.0
353,23.0
387,0.0
388,0.0
422,0.0
423,0.0
525,0.0
526,0.0
527,0.0
528,0.0
529,0.0
530,0.0
531,1.0
532,0.0
533,0.0
534,0.0
535,0.0
536,0.0
537,0.0
538,0.0
539,0.0
540,0.0
314,4.0
351,4.0
386,0.0
421,0.0
517,108954.91489371439
518,3419.004287500825
519,112373.91918121523
520,0.0
521,0.016666666666666668
522,0.05
523,0.05
524,0.11666666666666667
541,0.5153479937034624
542,0.4
543,1.2896033867631025
544,0.8153211698288277
545,0.4
546,0.5542455468354061
605,1180.8234888496845
606,0.35183800030763598
607,1062.7411399647158
608,4250964.559858864
639,3.214793011419461
640,1931.2990246281247
641,0.30268872056024206
642,1738.1691221653127
643,6952676.488661248
644,5.698293137235542
766,0.3145641871068572
788,10.204915631833462
789,10.098078449015443
790,0.36011769348254765
802,9.938805017562963
803,9.93880829870793
2,1, 1, 1, 0, 2, 0.00,15.00,Tuesday
6,7.2
239,1.0236133632112006
312,26.699760116528564
313,31.535213819606925
349,41.66871479124326
350,14.965161361095868
599,0.0
600,0.0
603,11.602598602986373
604,11.602598602989636
645,0.2151097949414622
647,0.1119861174879922
649,0.3733333333333333
650,0.32666666666666668
662,195.86683460085096
663,0.0
726,34.739795977888267
727,0.0
730,8.0
731,0.0026143282340239505
734,2.862173358352037
735,0.0037408458107904996
737,2645.2262879096807
739,244.98819424405026
741,0.0
743,0.0
892,15.398672098211547
893,2.7518414666666666
894,7.200000000000003
895,1.192996087431248
896,7.200000000000003
897,1.5215147301136174
898,16.076008763186999
899,19.135825266666666
900,13.899958618151155
901,19.135825266666666
902,13.830494653268199
903,19.135825266666666
904,13.830494653268199
905,19.135825266666666
906,29.570311275463508
907,6.299285009322317
908,7.200000000000003
909,1.3558559466723559
910,7.200000000000003
911,0.8407552480628762
912,33.41548931181631
913,34.5284044
914,30.468217182804638
915,34.5284044
916,30.468217182804638
917,34.5284044
918,30.466510144497954
919,34.5284044
920,26.475810046144319
921,2.7518414666666666
922,17.59595178202043
923,2.7518414666666666
924,17.965521011395816
925,34.43801270492086
926,9.074547208155164
927,1.5215147301136174
646,0.39999999999999999
648,0.26666666666666669
2,1, 1, 1, 0, 2,15.00,30.00,Tuesday
6,7.2
239,1.0198074678548424
312,22.278773988969936
313,41.68578660207029
349,46.411193484289977
350,11.542044397468948
599,0.0
600,0.0
603,21.75934593210272
604,21.759345932102037
645,0.2120568329743339
647,0.07098443359043405
649,0.18666666666666666
650,0.2333333333333333
662,47.638131883735457
663,0.0
726,7.29398215685147
727,0.0
730,8.0
731,0.003156215410887867
734,1.8123912789314139
735,0.001505922335147217
737,0.0
739,0.0
741,0.0
743,0.0
892,12.967629686835469
893,3.506857556172257
894,7.200000000000003
895,2.0245708604282335
896,7.200000000000003
897,1.1107518457252872
898,12.519486854964529
899,12.957737000000002
900,10.902277206560559
901,12.957737000000002
902,10.902277206560559
903,12.957737000000002
904,10.902277206560559
905,12.957737000000002
906,32.781912324789249
907,5.981378013983477
908,7.200000000000003
909,1.3683782151729747
910,7.200000000000003
911,0.498790638631214
912,36.252441304962307
913,35.70647266666667
914,34.0430338989342
915,35.70647266666667
916,34.0430338989342
917,35.70647266666667
918,34.039818058519099
919,35.70647266666667
920,22.754785404615896
921,3.506857556172257
922,13.612353838799974
923,3.506857556172257