Program Version,EnergyPlus, Version 8.8.0-Unknown, YMD=2019.07.16 14:16
1,5,Environment Title[],Latitude[deg],Longitude[deg],Time Zone[],Elevation[m]
2,6,Day of Simulation[],Month[],Day of Month[],DST Indicator[1=yes 0=no],Hour[],StartMinute[],EndMinute[],DayType
3,3,Cumulative Day of Simulation[],Month[],Day of Month[],DST Indicator[1=yes 0=no],DayType  ! When Daily Report Variables Requested
4,2,Cumulative Days of Simulation[],Month[]  ! When Monthly Report Variables Requested
5,1,Cumulative Days of Simulation[] ! When Run Period Report Variables Requested
6,1,Environment,Site Outdoor Air Drybulb Temperature [C] !TimeStep
133,1,WESTDATACENTER_EQUIP,ITE CPU Electric Power [W] !Hourly
134,1,WESTDATACENTER_EQUIP,ITE Fan Electric Power [W] !Hourly
135,1,WESTDATACENTER_EQUIP,ITE UPS Electric Power [W] !Hourly
136,1,WESTDATACENTER_EQUIP,ITE CPU Electric Power at Design Inlet Conditions [W] !Hourly
137,1,WESTDATACENTER_EQUIP,ITE Fan Electric Power at Design Inlet Conditions [W] !Hourly
138,1,WESTDATACENTER_EQUIP,ITE UPS Heat Gain to Zone Rate [W] !Hourly
139,1,WESTDATACENTER_EQUIP,ITE Total Heat Gain to Zone Rate [W] !Hourly
173,1,WESTDATACENTER_EQUIP,ITE Standard Density Air Volume Flow Rate [m3/s] !Hourly
174,1,WESTDATACENTER_EQUIP,ITE Air Inlet Dry-Bulb Temperature [C] !Hourly
175,1,WESTDATACENTER_EQUIP,ITE Air Inlet Dewpoint Temperature [C] !Hourly
176,1,WESTDATACENTER_EQUIP,ITE Air Inlet Relative Humidity [%] !Hourly
177,1,WESTDATACENTER_EQUIP,ITE Air Outlet Dry-Bulb Temperature [C] !Hourly
178,1,WESTDATACENTER_EQUIP,ITE Supply Heat Index [] !Hourly
179,1,WESTDATACENTER_EQUIP,ITE Air Inlet Operating Range Exceeded Time [hr] !Hourly
180,1,WESTDATACENTER_EQUIP,ITE Air Inlet Dry-Bulb Temperature Above Operating Range Time [hr] !Hourly
181,1,WESTDATACENTER_EQUIP,ITE Air Inlet Dry-Bulb Temperature Below Operating Range Time [hr] !Hourly
182,1,WESTDATACENTER_EQUIP,ITE Air Inlet Dewpoint Temperature Above Operating Range Time [hr] !Hourly
183,1,WESTDATACENTER_EQUIP,ITE Air Inlet Dewpoint Temperature Below Operating Range Time [hr] !Hourly
184,1,WESTDATACENTER_EQUIP,ITE Air Inlet Relative Humidity Above Operating Range Time [hr] !Hourly
185,1,WESTDATACENTER_EQUIP,ITE Air Inlet Relative Humidity Below Operating Range Time [hr] !Hourly
186,1,WESTDATACENTER_EQUIP,ITE Air Inlet Dry-Bulb Temperature Difference Above Operating Range [deltaC] !Hourly
187,1,WESTDATACENTER_EQUIP,ITE Air Inlet Dry-Bulb Temperature Difference Below Operating Range [deltaC] !Hourly
188,1,WESTDATACENTER_EQUIP,ITE Air Inlet Dewpoint Temperature Difference Above Operating Range [deltaC] !Hourly
189,1,WESTDATACENTER_EQUIP,ITE Air Inlet Dewpoint Temperature Difference Below Operating Range [deltaC] !Hourly
190,1,WESTDATACENTER_EQUIP,ITE Air Inlet Relative Humidity Difference Above Operating Range [%] !Hourly
191,1,WESTDATACENTER_EQUIP,ITE Air Inlet Relative Humidity Difference Below Operating Range [%] !Hourly
192,1,WEST ZONE,Zone ITE CPU Electric Power [W] !Hourly
193,1,WEST ZONE,Zone ITE Fan Electric Power [W] !Hourly
194,1,WEST ZONE,Zone ITE UPS Electric Power [W] !Hourly
195,1,WEST ZONE,Zone ITE CPU Electric Power at Design Inlet Conditions [W] !Hourly
196,1,WEST ZONE,Zone ITE Fan Electric Power at Design Inlet Conditions [W] !Hourly
197,1,WEST ZONE,Zone ITE UPS Heat Gain to Zone Rate [W] !Hourly
198,1,WEST ZONE,Zone ITE Total Heat Gain to Zone Rate [W] !Hourly
199,1,EASTDATACENTER_EQUIP,ITE CPU Electric Power [W] !Hourly
200,1,EASTDATACENTER_EQUIP,ITE Fan Electric Power [W] !Hourly
201,1,EASTDATACENTER_EQUIP,ITE UPS Electric Power [W] !Hourly
202,1,EASTDATACENTER_EQUIP,ITE CPU Electric Power at Design Inlet Conditions [W] !Hourly
203,1,EASTDATACENTER_EQUIP,ITE Fan Electric Power at Design Inlet Conditions [W] !Hourly
204,1,EASTDATACENTER_EQUIP,ITE UPS Heat Gain to Zone Rate [W] !Hourly
205,1,EASTDATACENTER_EQUIP,ITE Total Heat Gain to Zone Rate [W] !Hourly
209,1,EASTDATACENTER_EQUIP,ITE Standard Density Air Volume Flow Rate [m3/s] !Hourly
210,1,EASTDATACENTER_EQUIP,ITE Air Inlet Dry-Bulb Temperature [C] !Hourly
211,1,EASTDATACENTER_EQUIP,ITE Air Inlet Dewpoint Temperature [C] !Hourly
212,1,EASTDATACENTER_EQUIP,ITE Air Inlet Relative Humidity [%] !Hourly
213,1,EASTDATACENTER_EQUIP,ITE Air Outlet Dry-Bulb Temperature [C] !Hourly
214,1,EASTDATACENTER_EQUIP,ITE Supply Heat Index [] !Hourly
215,1,EASTDATACENTER_EQUIP,ITE Air Inlet Operating Range Exceeded Time [hr] !Hourly
216,1,EASTDATACENTER_EQUIP,ITE Air Inlet Dry-Bulb Temperature Above Operating Range Time [hr] !Hourly
217,1,EASTDATACENTER_EQUIP,ITE Air Inlet Dry-Bulb Temperature Below Operating Range Time [hr] !Hourly
218,1,EASTDATACENTER_EQUIP,ITE Air Inlet Dewpoint Temperature Above Operating Range Time [hr] !Hourly
219,1,EASTDATACENTER_EQUIP,ITE Air Inlet Dewpoint Temperature Below Operating Range Time [hr] !Hourly
220,1,EASTDATACENTER_EQUIP,ITE Air Inlet Relative Humidity Above Operating Range Time [hr] !Hourly
221,1,EASTDATACENTER_EQUIP,ITE Air Inlet Relative Humidity Below Operating Range Time [hr] !Hourly
222,1,EASTDATACENTER_EQUIP,ITE Air Inlet Dry-Bulb Temperature Difference Above Operating Range [deltaC] !Hourly
223,1,EASTDATACENTER_EQUIP,ITE Air Inlet Dry-Bulb Temperature Difference Below Operating Range [deltaC] !Hourly
224,1,EASTDATACENTER_EQUIP,ITE Air Inlet Dewpoint Temperature Difference Above Operating Range [deltaC] !Hourly
225,1,EASTDATACENTER_EQUIP,ITE Air Inlet Dewpoint Temperature Difference Below Operating Range [deltaC] !Hourly
226,1,EASTDATACENTER_EQUIP,ITE Air Inlet Relative Humidity Difference Above Operating Range [%] !Hourly
227,1,EASTDATACENTER_EQUIP,ITE Air Inlet Relative Humidity Difference Below Operating Range [%] !Hourly
228,1,EAST ZONE,Zone ITE CPU Electric Power [W] !Hourly
229,1,EAST ZONE,Zone ITE Fan Electric Power [W] !Hourly
230,1,EAST ZONE,Zone ITE UPS Electric Power [W] !Hourly
231,1,EAST ZONE,Zone ITE CPU Electric Power at Design Inlet Conditions [W] !Hourly
232,1,EAST ZONE,Zone ITE Fan Electric Power at Design Inlet Conditions [W] !Hourly
233,1,EAST ZONE,Zone ITE UPS Heat Gain to Zone Rate [W] !Hourly
234,1,EAST ZONE,Zone ITE Total Heat Gain to Zone Rate [W] !Hourly
239,1,EMS,Power Utilization Effectiveness [] !TimeStep
312,1,WEST ZONE,Zone Air Temperature [C] !TimeStep
313,1,WEST ZONE,Zone Air Relative Humidity [%] !TimeStep
314,1,WEST ZONE,Zone Thermostat Control Type [] !Hourly
315,1,WEST ZONE,Zone Thermostat Heating Setpoint Temperature [C] !Hourly
316,1,WEST ZONE,Zone Thermostat Cooling Setpoint Temperature [C] !Hourly
349,1,EAST ZONE,Zone Air Temperature [C] !TimeStep
350,1,EAST ZONE,Zone Air Relative Humidity [%] !TimeStep
351,1,EAST ZONE,Zone Thermostat Control Type [] !Hourly
352,1,EAST ZONE,Zone Thermostat Heating Setpoint Temperature [C] !Hourly
353,1,EAST ZONE,Zone Thermostat Cooling Setpoint Temperature [C] !Hourly
386,1,WEST PLENUM,Zone Thermostat Control Type [] !Hourly
387,1,WEST PLENUM,Zone Thermostat Heating Setpoint Temperature [C] !Hourly
388,1,WEST PLENUM,Zone Thermostat Cooling Setpoint Temperature [C] !Hourly
421,1,EAST PLENUM,Zone Thermostat Control Type [] !Hourly
422,1,EAST PLENUM,Zone Thermostat Heating Setpoint Temperature [C] !Hourly
423,1,EAST PLENUM,Zone Thermostat Cooling Setpoint Temperature [C] !Hourly
517,1,Whole Building,Facility Total Building Electric Demand Power [W] !Hourly
518,1,Whole Building,Facility Total HVAC Electric Demand Power [W] !Hourly
519,1,Whole Building,Facility Total Electric Demand Power [W] !Hourly
520,1,WEST ZONE,Zone Oscillating Temperatures Time [hr] !Hourly
521,1,EAST ZONE,Zone Oscillating Temperatures Time [hr] !Hourly
522,1,WEST PLENUM,Zone Oscillating Temperatures Time [hr] !Hourly
523,1,EAST PLENUM,Zone Oscillating Temperatures Time [hr] !Hourly
524,1,Facility,Facility Any Zone Oscillating Temperatures Time [hr] !Hourly
525,1,WEST ZONE,Zone Heating Setpoint Not Met Time [hr] !Hourly
526,1,WEST ZONE,Zone Heating Setpoint Not Met While Occupied Time [hr] !Hourly
527,1,WEST ZONE,Zone Cooling Setpoint Not Met Time [hr] !Hourly
528,1,WEST ZONE,Zone Cooling Setpoint Not Met While Occupied Time [hr] !Hourly
529,1,EAST ZONE,Zone Heating Setpoint Not Met Time [hr] !Hourly
530,1,EAST ZONE,Zone Heating Setpoint Not Met While Occupied Time [hr] !Hourly
531,1,EAST ZONE,Zone Cooling Setpoint Not Met Time [hr] !Hourly
532,1,EAST ZONE,Zone Cooling Setpoint Not Met While Occupied Time [hr] !Hourly
533,1,WEST PLENUM,Zone Heating Setpoint Not Met Time [hr] !Hourly
534,1,WEST PLENUM,Zone Heating Setpoint Not Met While Occupied Time [hr] !Hourly
535,1,WEST PLENUM,Zone Cooling Setpoint Not Met Time [hr] !Hourly
536,1,WEST PLENUM,Zone Cooling Setpoint Not Met While Occupied Time [hr] !Hourly
537,1,EAST PLENUM,Zone Heating Setpoint Not Met Time [hr] !Hourly
538,1,EAST PLENUM,Zone Heating Setpoint Not Met While Occupied Time [hr] !Hourly
539,1,EAST PLENUM,Zone Cooling Setpoint Not Met Time [hr] !Hourly
540,1,EAST PLENUM,Zone Cooling Setpoint Not Met While Occupied Time [hr] !Hourly
541,1,WEST ZONE VAV SYSTEM,Zone Air Terminal VAV Damper Position [] !Hourly
542,1,WEST ZONE VAV SYSTEM,Zone Air Terminal Minimum Air Flow Fraction [] !Hourly
543,1,WEST ZONE VAV SYSTEM,Zone Air Terminal Outdoor Air Volume Flow Rate [m3/s] !Hourly
544,1,EAST ZONE VAV SYSTEM,Zone Air Terminal VAV Damper Position [] !Hourly
545,1,EAST ZONE VAV SYSTEM,Zone Air Terminal Minimum Air Flow Fraction [] !Hourly
546,1,EAST ZONE VAV SYSTEM,Zone Air Terminal Outdoor Air Volume Flow Rate [m3/s] !Hourly
599,1,WEST ZONE CW COOLING COIL,Cooling Coil Total Cooling Rate [W] !TimeStep
600,1,WEST ZONE CW COOLING COIL,Cooling Coil Sensible Cooling Rate [W] !TimeStep
603,1,EAST ZONE CW COOLING COIL,Cooling Coil Total Cooling Rate [W] !TimeStep
604,1,EAST ZONE CW COOLING COIL,Cooling Coil Sensible Cooling Rate [W] !TimeStep
605,1,WEST ZONE SUPPLY FAN,Fan Electric Power [W] !Hourly
606,1,WEST ZONE SUPPLY FAN,Fan Rise in Air Temperature [deltaC] !Hourly
607,1,WEST ZONE SUPPLY FAN,Fan Heat Gain to Air [W] !Hourly
608,1,WEST ZONE SUPPLY FAN,Fan Electric Energy [J] !Hourly
639,1,WEST ZONE SUPPLY FAN,Fan Air Mass Flow Rate [kg/s] !Hourly
640,1,EAST ZONE SUPPLY FAN,Fan Electric Power [W] !Hourly
641,1,EAST ZONE SUPPLY FAN,Fan Rise in Air Temperature [deltaC] !Hourly
642,1,EAST ZONE SUPPLY FAN,Fan Heat Gain to Air [W] !Hourly
643,1,EAST ZONE SUPPLY FAN,Fan Electric Energy [J] !Hourly
644,1,EAST ZONE SUPPLY FAN,Fan Air Mass Flow Rate [kg/s] !Hourly
645,1,WEST DATA CENTER IEC,Evaporative Cooler Total Stage Effectiveness [] !TimeStep
646,1,WEST DATA CENTER IEC,Evaporative Cooler Operating Mode Status [] !TimeStep
647,1,EAST DATA CENTER IEC,Evaporative Cooler Total Stage Effectiveness [] !TimeStep
648,1,EAST DATA CENTER IEC,Evaporative Cooler Operating Mode Status [] !TimeStep
649,1,WEST DATA CENTER DEC,Evaporative Cooler Stage Effectiveness [] !TimeStep
650,1,EAST DATA CENTER DEC,Evaporative Cooler Stage Effectiveness [] !TimeStep
662,1,WEST DATA CENTER IEC,Evaporative Cooler Electric Power [W] !TimeStep
663,1,WEST DATA CENTER IEC,Evaporative Cooler Water Volume [m3] !TimeStep
726,1,EAST DATA CENTER IEC,Evaporative Cooler Electric Power [W] !TimeStep
727,1,EAST DATA CENTER IEC,Evaporative Cooler Water Volume [m3] !TimeStep
730,1,WEST DATA CENTER DEC,Evaporative Cooler Electric Power [W] !TimeStep
731,1,WEST DATA CENTER DEC,Evaporative Cooler Water Volume [m3] !TimeStep
734,1,EAST DATA CENTER DEC,Evaporative Cooler Electric Power [W] !TimeStep
735,1,EAST DATA CENTER DEC,Evaporative Cooler Water Volume [m3] !TimeStep
737,1,WEST DX COOLING COIL,Cooling Coil Total Cooling Rate [W] !TimeStep
739,1,WEST DX COOLING COIL,Cooling Coil Sensible Cooling Rate [W] !TimeStep
741,1,EAST DX COOLING COIL,Cooling Coil Total Cooling Rate [W] !TimeStep
743,1,EAST DX COOLING COIL,Cooling Coil Sensible Cooling Rate [W] !TimeStep
766,1,CHILLER,Chiller Evaporator Cooling Rate [W] !Hourly
788,1,CHILLER,Chiller Evaporator Inlet Temperature [C] !Hourly
789,1,CHILLER,Chiller Evaporator Outlet Temperature [C] !Hourly
790,1,CHILLER,Chiller Condenser Heat Transfer Rate [W] !Hourly
802,1,CHILLER,Chiller Condenser Inlet Temperature [C] !Hourly
803,1,CHILLER,Chiller Condenser Outlet Temperature [C] !Hourly
892,1,WEST ZONE INLET NODE,System Node Temperature [C] !TimeStep
893,1,WEST ZONE INLET NODE,System Node Mass Flow Rate [kg/s] !TimeStep
894,1,WEST OUTSIDE AIR INLET NODE,System Node Temperature [C] !TimeStep
895,1,WEST OUTSIDE AIR INLET NODE,System Node Mass Flow Rate [kg/s] !TimeStep
896,1,WEST IEC SECONDARY AIR INLET NODE,System Node Temperature [C] !TimeStep
897,1,WEST IEC SECONDARY AIR INLET NODE,System Node Mass Flow Rate [kg/s] !TimeStep
898,1,WEST ZONE DEC OUTLET NODE,System Node Temperature [C] !TimeStep
899,1,WEST ZONE DEC OUTLET NODE,System Node Setpoint Temperature [C] !TimeStep
900,1,WEST ZONE IEC OUTLET NODE,System Node Temperature [C] !TimeStep
901,1,WEST ZONE IEC OUTLET NODE,System Node Setpoint Temperature [C] !TimeStep
902,1,WEST ZONE CCOIL AIR OUTLET NODE,System Node Temperature [C] !TimeStep
903,1,WEST ZONE CCOIL AIR OUTLET NODE,System Node Setpoint Temperature [C] !TimeStep
904,1,WEST AIR LOOP OUTLET NODE,System Node Temperature [C] !TimeStep
905,1,WEST AIR LOOP OUTLET NODE,System Node Setpoint Temperature [C] !TimeStep
906,1,EAST ZONE INLET NODE,System Node Temperature [C] !TimeStep
907,1,EAST ZONE INLET NODE,System Node Mass Flow Rate [kg/s] !TimeStep
908,1,EAST OUTSIDE AIR INLET NODE,System Node Temperature [C] !TimeStep
909,1,EAST OUTSIDE AIR INLET NODE,System Node Mass Flow Rate [kg/s] !TimeStep
910,1,EAST IEC SECONDARY AIR INLET NODE,System Node Temperature [C] !TimeStep
911,1,EAST IEC SECONDARY AIR INLET NODE,System Node Mass Flow Rate [kg/s] !TimeStep
912,1,EAST ZONE DEC OUTLET NODE,System Node Temperature [C] !TimeStep
913,1,EAST ZONE DEC OUTLET NODE,System Node Setpoint Temperature [C] !TimeStep
914,1,EAST ZONE IEC OUTLET NODE,System Node Temperature [C] !TimeStep
915,1,EAST ZONE IEC OUTLET NODE,System Node Setpoint Temperature [C] !TimeStep
916,1,EAST ZONE CCOIL AIR OUTLET NODE,System Node Temperature [C] !TimeStep
917,1,EAST ZONE CCOIL AIR OUTLET NODE,System Node Setpoint Temperature [C] !TimeStep
918,1,EAST AIR LOOP OUTLET NODE,System Node Temperature [C] !TimeStep
919,1,EAST AIR LOOP OUTLET NODE,System Node Setpoint Temperature [C] !TimeStep
920,1,WEST ZONE RETURN AIR NODE,System Node Temperature [C] !TimeStep
921,1,WEST ZONE RETURN AIR NODE,System Node Mass Flow Rate [kg/s] !TimeStep
922,1,WEST ZONE MIXED AIR NODE,System Node Temperature [C] !TimeStep
923,1,WEST ZONE MIXED AIR NODE,System Node Mass Flow Rate [kg/s] !TimeStep
924,1,WEST ZONE SUPPLY FAN OUTLET NODE,System Node Temperature [C] !TimeStep
925,1,EAST ZONE SUPPLY FAN OUTLET NODE,System Node Temperature [C] !TimeStep
926,1,WEST IEC SECONDARY AIR OUTLET NODE,System Node Temperature [C] !TimeStep
927,1,WEST IEC SECONDARY AIR OUTLET NODE,System Node Mass Flow Rate [kg/s] !TimeStep
End of Data Dictionary
1,WHOLEYEARDAY,  37.62,-122.40,  -8.00,   2.00
2,1, 1, 1, 0, 1, 0.00,15.00,Tuesday
6,6.825
239,1.0300298866314462
312,22.51550240479796
313,31.544468161893389
349,22.326459450758894
350,29.871971584513305
599,0.0
600,0.0
603,0.0
604,0.0
645,0.09018830014272512
647,0.0
649,0.7
650,0.7
662,9.408975574297833
663,0.0
726,0.0
727,0.0
730,12.63477845170861
731,0.0060274550956241489
734,0.0
735,0.0
737,0.0
739,0.0
741,0.0
743,0.0
892,17.12458297399301
893,3.80819275
894,6.825
895,0.2826810422061265
896,6.825
897,0.5614934081588252
898,18.762320870324797
899,24.815459999999999
900,17.947530963856285
901,24.815459999999999
902,17.947530963856285
903,24.815459999999999
904,17.947530963856285
905,24.815459999999999
906,18.916669030658804
907,5.411632517479347
908,6.825
909,0.0
910,6.825
911,0.0
912,22.423121977744775
913,40.0
914,22.423121977744775
915,40.0
916,22.423121977744775
917,40.0
918,22.423121977744775
919,40.0
920,22.53514670461896
921,3.80819275
922,21.32629272502864
923,3.80819275
924,21.65087457555508
925,22.423121977744775
926,8.78039831410415
927,0.5614934081588252
646,0.25
648,0.0
2,1, 1, 1, 0, 1,15.00,30.00,Tuesday
6,6.95
239,1.1023698707042625
312,28.06043089746106
313,26.229497229224255
349,31.698142668952188
350,17.86531325244596
599,0.0
600,0.0
603,0.0
604,0.0
645,0.06524712057474537
647,0.0
649,0.6066666666666665
650,0.6999999999999997
662,1.7721267804154819
663,0.0
726,0.0
727,0.0
730,9.669648729992224
731,0.0049424890315224409
734,0.3502463229932806
735,0.0004533958376001254
737,0.0
739,0.0
741,0.0
743,0.0
892,19.77514634739085
893,4.3841246913556939
894,6.9499999999999979
895,1.2625340532786998
896,6.9499999999999979
897,0.2366645327476255
898,19.709769345623575
899,23.553602333333339
900,19.123247842910496
901,23.553602333333339
902,19.123247842910496
903,23.553602333333339
904,19.123247842910496
905,23.553602333333339
906,27.768491669911499
907,5.848893440325072
908,6.9499999999999979
909,0.04279163273254277
910,6.9499999999999979
911,0.0
912,30.660619790260819
913,39.49606193333333
914,30.660619790260819
915,39.49606193333333
916,30.660619790260819
917,39.49606193333333
918,30.660619790260819
919,39.49606193333333
920,27.632520926570238
921,4.3841246913556939
922,21.669742707283004
923,4.3841246913556939
924,21.991090581999904
925,30.803510048559283
926,8.601759135050596
927,0.2366645327476255
646,0.2
648,0.0
2,1, 1, 1, 0, 1,30.00,45.00,Tuesday
6,7.075
239,1.0343108792737764
312,24.85822252770795
313,36.0115596285104
349,45.342839379129809
350,9.106889423107369
599,0.0
600,0.0
603,17.544320389835183
604,17.544320389835183
645,0.18650532776677893
647,0.0
649,0.32666666666666668
650,0.6999999999999997
662,23.509011430065095
663,0.0
726,0.0
727,0.0
730,10.835820274999986
731,0.0034591192551731758
734,2.777273031884144
735,0.0036180619245801735
737,0.0
739,0.0
741,0.0
743,0.0
892,13.936288606874259
893,3.2295051561722567
894,7.075
895,1.8053819599565056
896,7.075
897,0.7442267634725497
898,13.92822060098214
899,17.205404866666667
900,12.356666346358637
901,17.205404866666667
902,12.356666346358637
903,17.205404866666667
904,12.356666346358637
905,17.205404866666667
906,32.789634894527377
907,4.605142040325071
908,7.075
909,0.8151607216741839
910,7.075
911,0.0
912,37.00553193284734
913,38.670135466666668
914,37.00553193284734
915,38.670135466666668
916,37.00553193284734
917,38.670135466666668
918,36.999797793078567
919,38.670135466666668
920,25.248627513684725
921,3.2295051561722567
922,15.579629987588469
923,3.2295051561722567
924,15.959339746192449
925,38.34731139885836
926,9.085815695677465
927,0.7442267634725497
646,0.3333333333333333
648,0.0
2,1, 1, 1, 0, 1,45.00,60.00,Tuesday
6,7.2
239,1.015888825688776
312,21.470157475079036
313,44.99467529853296
349,48.739421402430149
350,8.82704265791274
599,0.0
600,0.0
603,36.690754538147228
604,36.69075453814905
645,0.27752717126863365
647,0.0
649,0.32666666666666668
650,0.6999999999999997
662,44.97792545315174
663,0.0
726,0.0
727,0.0
730,11.222888061178683
731,0.003909998722749451
734,1.6862021690454896
735,0.0022804026724010195
737,0.0
739,0.0
741,0.0
743,0.0
892,13.536838694579704
893,3.4706234895055898
894,7.200000000000003
895,1.418551020524759
896,7.200000000000003
897,1.332640824529793
898,13.689489500318278
899,16.748562266666665
900,11.45912053328816
901,16.748562266666665
902,11.45912053328816
903,16.748562266666665
904,11.45912053328816
905,16.748562266666665
906,35.00965684077929
907,5.476311075988985
908,7.200000000000003
909,1.240777589231153
910,7.200000000000003
911,0.0
912,38.32040395677636
913,39.0828268
914,38.32040395677636
915,39.0828268
916,38.32040395677636
917,39.0828268
918,38.315079811842469
919,39.0828268
920,21.76639476976254
921,3.4706234895055898
922,15.153262268340832
923,3.4706234895055898
924,15.507256046009019
925,39.091533445626939
926,10.087032880985078
927,1.332640824529793
646,0.4666666666666666
648,0.0
2,1, 1, 1, 0, 1, 0.00,60.00,Tuesday
133,16654.947012880988
134,12937.295969202536
135,2959.2242982083517
136,13936.849545599995
137,10219.334400000002
138,2959.2242982083517
139,32551.467280291872
173,4.67760073666477
174,16.462794742347798
175,6.831612989585218
176,0.5506590956941417
177,24.099340558747014
178,0.098467175229932
179,1.0
180,0.0
181,0.0
182,0.0
183,0.0
184,0.0
185,1.0
186,0.0
187,0.0
188,0.0
189,0.0
190,0.0
191,-19.44934090430586
192,16654.947012880988
193,12937.295969202536
194,2959.2242982083517
195,13936.849545599995
196,10219.334400000002
197,2959.2242982083517
198,32551.467280291872
199,38533.445178466514
200,34385.46140139646
201,7291.890657986296
202,15546.354479999996
203,11399.520000000002
204,7291.890657986296
205,80210.79723784927
209,11.910297453554758
210,26.09017552560814
211,4.268793244698017
212,0.2857179187517498
213,33.533760129046317
214,0.08584112145119527
215,1.0
216,0.25
217,0.0
218,0.0
219,0.0
220,0.0
221,1.0
222,0.1153604585307999
223,0.0
224,0.0
225,0.0
226,0.0
227,-19.71428208124825
228,38533.445178466514
229,34385.46140139646
230,7291.890657986296
231,15546.354479999996
232,11399.520000000002
233,7291.890657986296
234,80210.79723784927
315,20.0
316,23.0
352,20.0
353,23.0
387,0.0
388,0.0
422,0.0
423,0.0
525,0.0
526,0.0
527,0.25
528,0.0
529,0.0
530,0.0
531,0.75
532,0.0
533,0.0
534,0.0
535,0.0
536,0.0
537,0.0
538,0.0
539,0.0
540,0.0
314,4.0
351,4.0
386,0.0
421,0.0
517,112790.66451814113
518,3769.5855599885517
519,116560.2500781297
520,0.016666666666666668
521,0.05
522,0.11666666666666667
523,0.16249999999999999
524,0.2791666666666666
541,0.5968340873757361
542,0.4
543,0.9902525375130914
544,0.7634113815358361
545,0.4
546,0.4357744022911513
605,1323.209961658388
606,0.34490831537887309
607,1190.888965492549
608,4763555.861970197
639,3.723111521758385
640,1804.518661270529
641,0.3043854423042106
642,1624.0667951434762
643,6496267.180573903
644,5.335494768529618
766,1.770562565216172
788,10.205511266345548
789,9.831396126308562
790,2.0269910782391489
802,9.94110642887817
803,9.94112489761093
2,1, 1, 1, 0, 2, 0.00,15.00,Tuesday
6,7.2
239,1.0177442933372154
312,19.750876486408659
313,50.05767054596843
349,49.225835228332
350,9.06022556657726
599,0.0
600,0.0
603,4181.1000695664525
604,776.2557176723982
645,0.18568521227017974
647,0.06006105011805121
649,0.32666666666666668
650,0.3733333333333333
662,33.851895520439288
663,0.0
726,108.70654032509268
727,0.0
730,8.0
731,0.002261019583385508
734,3.718677077462916
735,0.003856952462343042
737,0.0
739,0.0
741,0.0
743,0.0
892,13.937740337415857
893,2.930922556172256
894,7.200000000000003
895,1.0851612724387035
896,7.200000000000003
897,0.8508729086158132
898,14.362426285416403
899,23.0470068
900,12.848297329001726
901,23.0470068
902,12.848297329001726
903,23.0470068
904,12.848297329001726
905,23.0470068
906,31.595622981069917
907,5.459054071327826
908,7.200000000000003
909,1.5908999813731113
910,7.200000000000003
911,0.7573928752673717
912,34.8874550356622
913,36.46262693333333
914,33.75674712227919
915,36.46262693333333
916,33.75674712227919
917,36.46262693333333
918,33.64120876253056
919,36.46262693333333
920,19.849812869203448
921,2.930922556172256
922,15.171171292809458
923,2.930922556172256
924,15.557924054475646
925,36.461632840745327
926,9.345844424596594
927,0.8508729086158132
646,0.3333333333333333
648,0.13333333333333334
2,1, 1, 1, 0, 2,15.00,30.00,Tuesday
6,7.2
239,1.0623048912854687
312,20.055219344067333
313,49.31838517477785
349,50.84376433157362
350,8.216166414027598
599,0.0
600,0.0
603,27.013341906834879
604,27.01334190683509
645,0.15194941474123825
647,0.0
649,0.4375
650,0.525
662,42.05961665458256
663,0.0
726,0.0
727,0.0
730,6.603807282677366
731,0.0017349757967290662
734,0.5193290984763226
735,0.00043222325206274375
737,0.0
739,0.0
741,0.0
743,0.0
892,14.277485346772095
893,3.4909299606459616
894,7.200000000000001
895,1.4716676725847693
896,7.200000000000001
897,0.9961805087671554
898,15.473124483999083
899,19.981555125
900,14.298431235289936
901,19.981555125
902,14.298431235289936
903,19.981555125
904,14.298431235289936
905,19.981555125
906,34.7634396513147
907,5.0018741337396739
908,7.200000000000001
909,1.3097154431937848
910,7.200000000000001
911,0.0
912,38.661277491771588
913,39.78796
914,38.661277491771588
915,39.78796
916,38.661277491771588
917,39.78796
918,38.657475476676008
919,39.78796
920,20.215257759881678
921,3.4909299606459616
922,16.09554019607654
923,3.4909299606459616
924,16.45256930210431
925,38.90535916529411
926,8.59799014696599
927,0.9961805087671554
646,0.25
648,0.0
2,1, 1, 1, 0, 2,30.00,45.00,Tuesday
6,7.2
239,1.0168118834931035
312,22.277408508721217
313,43.343692415991409
349,53.11338727582701
350,7.8018039960626039
599,0.0
600,0.0
603,55.92208089303789
604,55.922080893038728
645,0.07326320236267917
647,0.0