Program Version,EnergyPlus, Version 8.8.0-Unknown, YMD=2019.07.16 14:29
1,5,Environment Title[],Latitude[deg],Longitude[deg],Time Zone[],Elevation[m]
2,6,Day of Simulation[],Month[],Day of Month[],DST Indicator[1=yes 0=no],Hour[],StartMinute[],EndMinute[],DayType
3,3,Cumulative Day of Simulation[],Month[],Day of Month[],DST Indicator[1=yes 0=no],DayType  ! When Daily Report Variables Requested
4,2,Cumulative Days of Simulation[],Month[]  ! When Monthly Report Variables Requested
5,1,Cumulative Days of Simulation[] ! When Run Period Report Variables Requested
6,1,Environment,Site Outdoor Air Drybulb Temperature [C] !TimeStep
133,1,WESTDATACENTER_EQUIP,ITE CPU Electric Power [W] !Hourly
134,1,WESTDATACENTER_EQUIP,ITE Fan Electric Power [W] !Hourly
135,1,WESTDATACENTER_EQUIP,ITE UPS Electric Power [W] !Hourly
136,1,WESTDATACENTER_EQUIP,ITE CPU Electric Power at Design Inlet Conditions [W] !Hourly
137,1,WESTDATACENTER_EQUIP,ITE Fan Electric Power at Design Inlet Conditions [W] !Hourly
138,1,WESTDATACENTER_EQUIP,ITE UPS Heat Gain to Zone Rate [W] !Hourly
139,1,WESTDATACENTER_EQUIP,ITE Total Heat Gain to Zone Rate [W] !Hourly
173,1,WESTDATACENTER_EQUIP,ITE Standard Density Air Volume Flow Rate [m3/s] !Hourly
174,1,WESTDATACENTER_EQUIP,ITE Air Inlet Dry-Bulb Temperature [C] !Hourly
175,1,WESTDATACENTER_EQUIP,ITE Air Inlet Dewpoint Temperature [C] !Hourly
176,1,WESTDATACENTER_EQUIP,ITE Air Inlet Relative Humidity [%] !Hourly
177,1,WESTDATACENTER_EQUIP,ITE Air Outlet Dry-Bulb Temperature [C] !Hourly
178,1,WESTDATACENTER_EQUIP,ITE Supply Heat Index [] !Hourly
179,1,WESTDATACENTER_EQUIP,ITE Air Inlet Operating Range Exceeded Time [hr] !Hourly
180,1,WESTDATACENTER_EQUIP,ITE Air Inlet Dry-Bulb Temperature Above Operating Range Time [hr] !Hourly
181,1,WESTDATACENTER_EQUIP,ITE Air Inlet Dry-Bulb Temperature Below Operating Range Time [hr] !Hourly
182,1,WESTDATACENTER_EQUIP,ITE Air Inlet Dewpoint Temperature Above Operating Range Time [hr] !Hourly
183,1,WESTDATACENTER_EQUIP,ITE Air Inlet Dewpoint Temperature Below Operating Range Time [hr] !Hourly
184,1,WESTDATACENTER_EQUIP,ITE Air Inlet Relative Humidity Above Operating Range Time [hr] !Hourly
185,1,WESTDATACENTER_EQUIP,ITE Air Inlet Relative Humidity Below Operating Range Time [hr] !Hourly
186,1,WESTDATACENTER_EQUIP,ITE Air Inlet Dry-Bulb Temperature Difference Above Operating Range [deltaC] !Hourly
187,1,WESTDATACENTER_EQUIP,ITE Air Inlet Dry-Bulb Temperature Difference Below Operating Range [deltaC] !Hourly
188,1,WESTDATACENTER_EQUIP,ITE Air Inlet Dewpoint Temperature Difference Above Operating Range [deltaC] !Hourly
189,1,WESTDATACENTER_EQUIP,ITE Air Inlet Dewpoint Temperature Difference Below Operating Range [deltaC] !Hourly
190,1,WESTDATACENTER_EQUIP,ITE Air Inlet Relative Humidity Difference Above Operating Range [%] !Hourly
191,1,WESTDATACENTER_EQUIP,ITE Air Inlet Relative Humidity Difference Below Operating Range [%] !Hourly
192,1,WEST ZONE,Zone ITE CPU Electric Power [W] !Hourly
193,1,WEST ZONE,Zone ITE Fan Electric Power [W] !Hourly
194,1,WEST ZONE,Zone ITE UPS Electric Power [W] !Hourly
195,1,WEST ZONE,Zone ITE CPU Electric Power at Design Inlet Conditions [W] !Hourly
196,1,WEST ZONE,Zone ITE Fan Electric Power at Design Inlet Conditions [W] !Hourly
197,1,WEST ZONE,Zone ITE UPS Heat Gain to Zone Rate [W] !Hourly
198,1,WEST ZONE,Zone ITE Total Heat Gain to Zone Rate [W] !Hourly
199,1,EASTDATACENTER_EQUIP,ITE CPU Electric Power [W] !Hourly
200,1,EASTDATACENTER_EQUIP,ITE Fan Electric Power [W] !Hourly
201,1,EASTDATACENTER_EQUIP,ITE UPS Electric Power [W] !Hourly
202,1,EASTDATACENTER_EQUIP,ITE CPU Electric Power at Design Inlet Conditions [W] !Hourly
203,1,EASTDATACENTER_EQUIP,ITE Fan Electric Power at Design Inlet Conditions [W] !Hourly
204,1,EASTDATACENTER_EQUIP,ITE UPS Heat Gain to Zone Rate [W] !Hourly
205,1,EASTDATACENTER_EQUIP,ITE Total Heat Gain to Zone Rate [W] !Hourly
209,1,EASTDATACENTER_EQUIP,ITE Standard Density Air Volume Flow Rate [m3/s] !Hourly
210,1,EASTDATACENTER_EQUIP,ITE Air Inlet Dry-Bulb Temperature [C] !Hourly
211,1,EASTDATACENTER_EQUIP,ITE Air Inlet Dewpoint Temperature [C] !Hourly
212,1,EASTDATACENTER_EQUIP,ITE Air Inlet Relative Humidity [%] !Hourly
213,1,EASTDATACENTER_EQUIP,ITE Air Outlet Dry-Bulb Temperature [C] !Hourly
214,1,EASTDATACENTER_EQUIP,ITE Supply Heat Index [] !Hourly
215,1,EASTDATACENTER_EQUIP,ITE Air Inlet Operating Range Exceeded Time [hr] !Hourly
216,1,EASTDATACENTER_EQUIP,ITE Air Inlet Dry-Bulb Temperature Above Operating Range Time [hr] !Hourly
217,1,EASTDATACENTER_EQUIP,ITE Air Inlet Dry-Bulb Temperature Below Operating Range Time [hr] !Hourly
218,1,EASTDATACENTER_EQUIP,ITE Air Inlet Dewpoint Temperature Above Operating Range Time [hr] !Hourly
219,1,EASTDATACENTER_EQUIP,ITE Air Inlet Dewpoint Temperature Below Operating Range Time [hr] !Hourly
220,1,EASTDATACENTER_EQUIP,ITE Air Inlet Relative Humidity Above Operating Range Time [hr] !Hourly
221,1,EASTDATACENTER_EQUIP,ITE Air Inlet Relative Humidity Below Operating Range Time [hr] !Hourly
222,1,EASTDATACENTER_EQUIP,ITE Air Inlet Dry-Bulb Temperature Difference Above Operating Range [deltaC] !Hourly
223,1,EASTDATACENTER_EQUIP,ITE Air Inlet Dry-Bulb Temperature Difference Below Operating Range [deltaC] !Hourly
224,1,EASTDATACENTER_EQUIP,ITE Air Inlet Dewpoint Temperature Difference Above Operating Range [deltaC] !Hourly
225,1,EASTDATACENTER_EQUIP,ITE Air Inlet Dewpoint Temperature Difference Below Operating Range [deltaC] !Hourly
226,1,EASTDATACENTER_EQUIP,ITE Air Inlet Relative Humidity Difference Above Operating Range [%] !Hourly
227,1,EASTDATACENTER_EQUIP,ITE Air Inlet Relative Humidity Difference Below Operating Range [%] !Hourly
228,1,EAST ZONE,Zone ITE CPU Electric Power [W] !Hourly
229,1,EAST ZONE,Zone ITE Fan Electric Power [W] !Hourly
230,1,EAST ZONE,Zone ITE UPS Electric Power [W] !Hourly
231,1,EAST ZONE,Zone ITE CPU Electric Power at Design Inlet Conditions [W] !Hourly
232,1,EAST ZONE,Zone ITE Fan Electric Power at Design Inlet Conditions [W] !Hourly
233,1,EAST ZONE,Zone ITE UPS Heat Gain to Zone Rate [W] !Hourly
234,1,EAST ZONE,Zone ITE Total Heat Gain to Zone Rate [W] !Hourly
239,1,EMS,Power Utilization Effectiveness [] !TimeStep
312,1,WEST ZONE,Zone Air Temperature [C] !TimeStep
313,1,WEST ZONE,Zone Air Relative Humidity [%] !TimeStep
314,1,WEST ZONE,Zone Thermostat Control Type [] !Hourly
315,1,WEST ZONE,Zone Thermostat Heating Setpoint Temperature [C] !Hourly
316,1,WEST ZONE,Zone Thermostat Cooling Setpoint Temperature [C] !Hourly
349,1,EAST ZONE,Zone Air Temperature [C] !TimeStep
350,1,EAST ZONE,Zone Air Relative Humidity [%] !TimeStep
351,1,EAST ZONE,Zone Thermostat Control Type [] !Hourly
352,1,EAST ZONE,Zone Thermostat Heating Setpoint Temperature [C] !Hourly
353,1,EAST ZONE,Zone Thermostat Cooling Setpoint Temperature [C] !Hourly
386,1,WEST PLENUM,Zone Thermostat Control Type [] !Hourly
387,1,WEST PLENUM,Zone Thermostat Heating Setpoint Temperature [C] !Hourly
388,1,WEST PLENUM,Zone Thermostat Cooling Setpoint Temperature [C] !Hourly
421,1,EAST PLENUM,Zone Thermostat Control Type [] !Hourly
422,1,EAST PLENUM,Zone Thermostat Heating Setpoint Temperature [C] !Hourly
423,1,EAST PLENUM,Zone Thermostat Cooling Setpoint Temperature [C] !Hourly
517,1,Whole Building,Facility Total Building Electric Demand Power [W] !Hourly
518,1,Whole Building,Facility Total HVAC Electric Demand Power [W] !Hourly
519,1,Whole Building,Facility Total Electric Demand Power [W] !Hourly
520,1,WEST ZONE,Zone Oscillating Temperatures Time [hr] !Hourly
521,1,EAST ZONE,Zone Oscillating Temperatures Time [hr] !Hourly
522,1,WEST PLENUM,Zone Oscillating Temperatures Time [hr] !Hourly
523,1,EAST PLENUM,Zone Oscillating Temperatures Time [hr] !Hourly
524,1,Facility,Facility Any Zone Oscillating Temperatures Time [hr] !Hourly
525,1,WEST ZONE,Zone Heating Setpoint Not Met Time [hr] !Hourly
526,1,WEST ZONE,Zone Heating Setpoint Not Met While Occupied Time [hr] !Hourly
527,1,WEST ZONE,Zone Cooling Setpoint Not Met Time [hr] !Hourly
528,1,WEST ZONE,Zone Cooling Setpoint Not Met While Occupied Time [hr] !Hourly
529,1,EAST ZONE,Zone Heating Setpoint Not Met Time [hr] !Hourly
530,1,EAST ZONE,Zone Heating Setpoint Not Met While Occupied Time [hr] !Hourly
531,1,EAST ZONE,Zone Cooling Setpoint Not Met Time [hr] !Hourly
532,1,EAST ZONE,Zone Cooling Setpoint Not Met While Occupied Time [hr] !Hourly
533,1,WEST PLENUM,Zone Heating Setpoint Not Met Time [hr] !Hourly
534,1,WEST PLENUM,Zone Heating Setpoint Not Met While Occupied Time [hr] !Hourly
535,1,WEST PLENUM,Zone Cooling Setpoint Not Met Time [hr] !Hourly
536,1,WEST PLENUM,Zone Cooling Setpoint Not Met While Occupied Time [hr] !Hourly
537,1,EAST PLENUM,Zone Heating Setpoint Not Met Time [hr] !Hourly
538,1,EAST PLENUM,Zone Heating Setpoint Not Met While Occupied Time [hr] !Hourly
539,1,EAST PLENUM,Zone Cooling Setpoint Not Met Time [hr] !Hourly
540,1,EAST PLENUM,Zone Cooling Setpoint Not Met While Occupied Time [hr] !Hourly
541,1,WEST ZONE VAV SYSTEM,Zone Air Terminal VAV Damper Position [] !Hourly
542,1,WEST ZONE VAV SYSTEM,Zone Air Terminal Minimum Air Flow Fraction [] !Hourly
543,1,WEST ZONE VAV SYSTEM,Zone Air Terminal Outdoor Air Volume Flow Rate [m3/s] !Hourly
544,1,EAST ZONE VAV SYSTEM,Zone Air Terminal VAV Damper Position [] !Hourly
545,1,EAST ZONE VAV SYSTEM,Zone Air Terminal Minimum Air Flow Fraction [] !Hourly
546,1,EAST ZONE VAV SYSTEM,Zone Air Terminal Outdoor Air Volume Flow Rate [m3/s] !Hourly
599,1,WEST ZONE CW COOLING COIL,Cooling Coil Total Cooling Rate [W] !TimeStep
600,1,WEST ZONE CW COOLING COIL,Cooling Coil Sensible Cooling Rate [W] !TimeStep
603,1,EAST ZONE CW COOLING COIL,Cooling Coil Total Cooling Rate [W] !TimeStep
604,1,EAST ZONE CW COOLING COIL,Cooling Coil Sensible Cooling Rate [W] !TimeStep
605,1,WEST ZONE SUPPLY FAN,Fan Electric Power [W] !Hourly
606,1,WEST ZONE SUPPLY FAN,Fan Rise in Air Temperature [deltaC] !Hourly
607,1,WEST ZONE SUPPLY FAN,Fan Heat Gain to Air [W] !Hourly
608,1,WEST ZONE SUPPLY FAN,Fan Electric Energy [J] !Hourly
639,1,WEST ZONE SUPPLY FAN,Fan Air Mass Flow Rate [kg/s] !Hourly
640,1,EAST ZONE SUPPLY FAN,Fan Electric Power [W] !Hourly
641,1,EAST ZONE SUPPLY FAN,Fan Rise in Air Temperature [deltaC] !Hourly
642,1,EAST ZONE SUPPLY FAN,Fan Heat Gain to Air [W] !Hourly
643,1,EAST ZONE SUPPLY FAN,Fan Electric Energy [J] !Hourly
644,1,EAST ZONE SUPPLY FAN,Fan Air Mass Flow Rate [kg/s] !Hourly
645,1,WEST DATA CENTER IEC,Evaporative Cooler Total Stage Effectiveness [] !TimeStep
646,1,WEST DATA CENTER IEC,Evaporative Cooler Operating Mode Status [] !TimeStep
647,1,EAST DATA CENTER IEC,Evaporative Cooler Total Stage Effectiveness [] !TimeStep
648,1,EAST DATA CENTER IEC,Evaporative Cooler Operating Mode Status [] !TimeStep
649,1,WEST DATA CENTER DEC,Evaporative Cooler Stage Effectiveness [] !TimeStep
650,1,EAST DATA CENTER DEC,Evaporative Cooler Stage Effectiveness [] !TimeStep
662,1,WEST DATA CENTER IEC,Evaporative Cooler Electric Power [W] !TimeStep
663,1,WEST DATA CENTER IEC,Evaporative Cooler Water Volume [m3] !TimeStep
726,1,EAST DATA CENTER IEC,Evaporative Cooler Electric Power [W] !TimeStep
727,1,EAST DATA CENTER IEC,Evaporative Cooler Water Volume [m3] !TimeStep
730,1,WEST DATA CENTER DEC,Evaporative Cooler Electric Power [W] !TimeStep
731,1,WEST DATA CENTER DEC,Evaporative Cooler Water Volume [m3] !TimeStep
734,1,EAST DATA CENTER DEC,Evaporative Cooler Electric Power [W] !TimeStep
735,1,EAST DATA CENTER DEC,Evaporative Cooler Water Volume [m3] !TimeStep
737,1,WEST DX COOLING COIL,Cooling Coil Total Cooling Rate [W] !TimeStep
739,1,WEST DX COOLING COIL,Cooling Coil Sensible Cooling Rate [W] !TimeStep
741,1,EAST DX COOLING COIL,Cooling Coil Total Cooling Rate [W] !TimeStep
743,1,EAST DX COOLING COIL,Cooling Coil Sensible Cooling Rate [W] !TimeStep
766,1,CHILLER,Chiller Evaporator Cooling Rate [W] !Hourly
788,1,CHILLER,Chiller Evaporator Inlet Temperature [C] !Hourly
789,1,CHILLER,Chiller Evaporator Outlet Temperature [C] !Hourly
790,1,CHILLER,Chiller Condenser Heat Transfer Rate [W] !Hourly
802,1,CHILLER,Chiller Condenser Inlet Temperature [C] !Hourly
803,1,CHILLER,Chiller Condenser Outlet Temperature [C] !Hourly
892,1,WEST ZONE INLET NODE,System Node Temperature [C] !TimeStep
893,1,WEST ZONE INLET NODE,System Node Mass Flow Rate [kg/s] !TimeStep
894,1,WEST OUTSIDE AIR INLET NODE,System Node Temperature [C] !TimeStep
895,1,WEST OUTSIDE AIR INLET NODE,System Node Mass Flow Rate [kg/s] !TimeStep
896,1,WEST IEC SECONDARY AIR INLET NODE,System Node Temperature [C] !TimeStep
897,1,WEST IEC SECONDARY AIR INLET NODE,System Node Mass Flow Rate [kg/s] !TimeStep
898,1,WEST ZONE DEC OUTLET NODE,System Node Temperature [C] !TimeStep
899,1,WEST ZONE DEC OUTLET NODE,System Node Setpoint Temperature [C] !TimeStep
900,1,WEST ZONE IEC OUTLET NODE,System Node Temperature [C] !TimeStep
901,1,WEST ZONE IEC OUTLET NODE,System Node Setpoint Temperature [C] !TimeStep
902,1,WEST ZONE CCOIL AIR OUTLET NODE,System Node Temperature [C] !TimeStep
903,1,WEST ZONE CCOIL AIR OUTLET NODE,System Node Setpoint Temperature [C] !TimeStep
904,1,WEST AIR LOOP OUTLET NODE,System Node Temperature [C] !TimeStep
905,1,WEST AIR LOOP OUTLET NODE,System Node Setpoint Temperature [C] !TimeStep
906,1,EAST ZONE INLET NODE,System Node Temperature [C] !TimeStep
907,1,EAST ZONE INLET NODE,System Node Mass Flow Rate [kg/s] !TimeStep
908,1,EAST OUTSIDE AIR INLET NODE,System Node Temperature [C] !TimeStep
909,1,EAST OUTSIDE AIR INLET NODE,System Node Mass Flow Rate [kg/s] !TimeStep
910,1,EAST IEC SECONDARY AIR INLET NODE,System Node Temperature [C] !TimeStep
911,1,EAST IEC SECONDARY AIR INLET NODE,System Node Mass Flow Rate [kg/s] !TimeStep
912,1,EAST ZONE DEC OUTLET NODE,System Node Temperature [C] !TimeStep
913,1,EAST ZONE DEC OUTLET NODE,System Node Setpoint Temperature [C] !TimeStep
914,1,EAST ZONE IEC OUTLET NODE,System Node Temperature [C] !TimeStep
915,1,EAST ZONE IEC OUTLET NODE,System Node Setpoint Temperature [C] !TimeStep
916,1,EAST ZONE CCOIL AIR OUTLET NODE,System Node Temperature [C] !TimeStep
917,1,EAST ZONE CCOIL AIR OUTLET NODE,System Node Setpoint Temperature [C] !TimeStep
918,1,EAST AIR LOOP OUTLET NODE,System Node Temperature [C] !TimeStep
919,1,EAST AIR LOOP OUTLET NODE,System Node Setpoint Temperature [C] !TimeStep
920,1,WEST ZONE RETURN AIR NODE,System Node Temperature [C] !TimeStep
921,1,WEST ZONE RETURN AIR NODE,System Node Mass Flow Rate [kg/s] !TimeStep
922,1,WEST ZONE MIXED AIR NODE,System Node Temperature [C] !TimeStep
923,1,WEST ZONE MIXED AIR NODE,System Node Mass Flow Rate [kg/s] !TimeStep
924,1,WEST ZONE SUPPLY FAN OUTLET NODE,System Node Temperature [C] !TimeStep
925,1,EAST ZONE SUPPLY FAN OUTLET NODE,System Node Temperature [C] !TimeStep
926,1,WEST IEC SECONDARY AIR OUTLET NODE,System Node Temperature [C] !TimeStep
927,1,WEST IEC SECONDARY AIR OUTLET NODE,System Node Mass Flow Rate [kg/s] !TimeStep
End of Data Dictionary
1,WHOLEYEARDAY,  37.62,-122.40,  -8.00,   2.00
2,1, 1, 1, 0, 1, 0.00,15.00,Tuesday
6,6.825
239,1.0300298866314462
312,21.16542322135961
313,36.04495896977406
349,23.33543740502966
350,28.895347402230049
599,0.0
600,0.0
603,0.0
604,0.0
645,0.15982643470904296
647,0.0
649,0.46666666666666659
650,0.6999999999999997
662,11.418008879584934
663,0.0
726,0.0
727,0.0
730,10.0
731,0.0030894586694776738
734,1.5671419107616669
735,0.0015263872490399044
737,0.0
739,0.0
741,0.0
743,0.0
892,15.132886564015692
893,3.3849670228389239
894,6.825
895,0.8480832026507922
896,6.825
897,0.5688159458523153
898,15.974630451339554
899,21.163255666666669
900,14.630577522171058
901,21.163255666666669
902,14.630577522171058
903,21.163255666666669
904,14.630577522171058
905,21.163255666666669
906,21.12263399629719
907,6.972194765961446
908,6.825
909,0.1696072230439351
910,6.825
911,0.0
912,22.704542408883769
913,32.33746813333334
914,22.704542408883769
915,32.33746813333334
916,22.704542408883769
917,32.33746813333334
918,22.704542408883769
919,32.33746813333334
920,21.269482977173018
921,3.3849670228389239
922,17.753120213698549
923,3.3849670228389239
924,18.08810527728788
925,23.116178031498678
926,9.548933811550004
927,0.5688159458523153
646,0.39999999999999999
648,0.0
2,1, 1, 1, 0, 1,15.00,30.00,Tuesday
6,6.95
239,1.083505878192423
312,26.95478707431579
313,28.80366295262763
349,29.235271790186216
350,24.439286298100403
599,0.0
600,0.0
603,0.0
604,0.0
645,0.12483596012537189
647,0.05267763803180323
649,0.46666666666666659
650,0.5599999999999998
662,101.67719914813955
663,0.0
726,18.0261259381314
727,0.0
730,8.881300048131595
731,0.003156340469931302
734,6.337476627375118
735,0.007657183110590306
737,743.4295344517993
739,68.88787457267014
741,0.0
743,0.0
892,17.215640933637049
893,3.526877933333334
894,6.9499999999999979
895,1.167166230796449
896,6.9499999999999979
897,0.871857997068074
898,17.25547714659521
899,21.443396666666666
900,16.18973665487433
901,21.443396666666666
902,16.151106621429436
903,21.443396666666666
904,16.151106621429436
905,21.443396666666666
906,21.557369156273095
907,6.894969832628113
908,6.9499999999999979
909,1.3260851785542512
910,6.9499999999999979
911,0.45377354842774639
912,23.142572112088979
913,31.918315666666666
914,22.422959574934514
915,31.918315666666666
916,22.422959574934514
917,31.918315666666666
918,22.422959574934514
919,31.918315666666666
920,26.38797267045871
921,3.526877933333334
922,18.771064978123627
923,3.526877933333334
924,19.10634901292941
925,25.123689701730834
926,7.9423744102070439
927,0.871857997068074
646,0.26666666666666669
648,0.13333333333333334
2,1, 1, 1, 0, 1,30.00,45.00,Tuesday
6,7.075
239,1.0322127349712387
312,31.37844781557941
313,24.5275866763819
349,31.02099154083688
350,28.623947027788789
599,0.0
600,0.0
603,26.56235990930196
604,26.562359909302196
645,0.1550278313176102
647,0.028888446470654449
649,0.5599999999999998
650,0.6999999999999997
662,98.6148946857961
663,0.0
726,7.074542957979194
727,0.0
730,11.864170817477469
731,0.004625143215012872
734,8.16286693564564
735,0.009546177918290301
737,585.3275204013315
739,24.585127556990483
741,0.0
743,0.0
892,17.419054506280067
893,3.0340922666666665
894,7.075
895,1.319417471101665
896,7.075
897,0.9168374560878685
898,18.805331912957326
899,21.306302933333336
900,17.011701804305305
901,21.306302933333336
902,16.997915280717338
903,21.306302933333336
904,16.997915280717338
905,21.306302933333336
906,24.84856406700315
907,6.97682429929478
908,7.075
909,0.912823459525239
910,7.075
911,0.2389045166093294
912,25.455885167676898
913,30.58715633333333
914,24.973345859381455
915,30.58715633333333
916,24.973345859381455
917,30.58715633333333
918,24.96964245061509
919,30.58715633333333
920,31.07612075254493
921,3.0340922666666665
922,21.527268820280474
923,3.0340922666666665
924,21.898368291507663
925,27.913451081069387
926,10.070241056310025
927,0.9168374560878685
646,0.3333333333333333
648,0.06666666666666667
2,1, 1, 1, 0, 1,45.00,60.00,Tuesday
6,7.2
239,1.027561813506925
312,27.83323625221029
313,32.79489023057441
349,30.924819832318048
350,34.50561236582384
599,0.0
600,0.0
603,0.0
604,0.0
645,0.13306269550100176
647,0.006669473487999727
649,0.6066666666666665
650,0.6533333333333331
662,194.4087613405008
663,0.0
726,0.0
727,0.0
730,10.80199620028342
731,0.00481085037105578
734,8.188999270678965
735,0.008193081091403248
737,3215.5242029586475
739,203.3122043552051
741,0.0
743,0.0
892,19.42829053684306
893,2.9189775790111804
894,7.200000000000003
895,0.6273836389840034
896,7.200000000000003
897,1.3213924765726928
898,20.58674477680307
899,21.8863878
900,19.090010337604708
901,21.8863878
902,19.037389152175146
903,21.8863878
904,19.037389152175146
905,21.8863878
906,24.682215815474455
907,6.989016534958693
908,7.200000000000003
909,0.8724950647599675
910,7.200000000000003
911,0.01718465738438502
912,26.088226511378797
913,31.65722206666667
914,26.050452215748547
915,31.65722206666667
916,26.050452215748547
917,31.65722206666667
918,26.050452215748547
919,31.65722206666667
920,28.065623980079708
921,2.9189775790111804
922,22.71413705901245
923,2.9189775790111804
924,23.10155259841641
925,28.18902798671471
926,8.194159255659681
927,1.3213924765726928
646,0.2
648,0.06666666666666667
2,1, 1, 1, 0, 1, 0.00,60.00,Tuesday
133,19339.845295032013
134,15622.060013151362
135,3496.1905308183364
136,13936.849545599995
137,10219.334400000002
138,3496.1905308183364
139,38458.09583900171
173,5.611058244325257
174,17.907722725301217
175,6.419370402510982
176,0.47870469611464319
177,25.463319771682099
178,0.10482612492468144
179,1.0
180,0.0
181,0.0
182,0.0
183,0.0
184,0.0
185,1.0
186,0.0
187,0.0
188,0.0
189,0.0
190,0.0
191,-19.521295303885358
192,19339.845295032013
193,15622.060013151362
194,3496.1905308183364
195,13936.849545599995
196,10219.334400000002
197,3496.1905308183364
198,38458.09583900171
199,26500.833944401238
200,22353.451767812858
201,4885.428571221409
202,15546.354479999996
203,11399.520000000002
204,4885.428571221409
205,53739.7142834355
209,7.958659008032383
210,20.28501416927824
211,8.01482618961478
212,0.4699793947052605
213,27.701962112493534
214,0.08226219419937035
215,1.0
216,0.0
217,0.0
218,0.0
219,0.0
220,0.0
221,1.0
222,0.0
223,0.0
224,0.0
225,0.0
226,0.0
227,-19.53002060529474
228,26500.833944401238
229,22353.451767812858
230,4885.428571221409
231,15546.354479999996
232,11399.520000000002
233,4885.428571221409
234,53739.7142834355
315,20.0
316,23.0
352,20.0
353,23.0
387,0.0
388,0.0
422,0.0
423,0.0
525,0.0
526,0.0
527,0.75
528,0.0
529,0.0
530,0.0
531,1.0
532,0.0
533,0.0
534,0.0
535,0.0
536,0.0
537,0.0
538,0.0
539,0.0
540,0.0
314,4.0
351,4.0
386,0.0
421,0.0
517,92226.21012243722
518,4194.144558626927
519,96420.35468106414
520,0.016666666666666668
521,0.0
522,0.0
523,0.016666666666666668
524,0.03333333333333333
541,0.5155781421034674
542,0.4
543,0.8226690683521739
544,0.9955980678262744
545,0.4
546,0.6812599112486244
605,1185.2591876560266
606,0.35719602725656698
607,1066.733268890424
608,4266933.075561697
639,3.2162287004625265
640,2445.6493183880293
641,0.3107679306386073
642,2201.0843865492266
643,8804337.546196903
644,6.958251358210758
766,1.8371777157818186
788,10.205232757497708
789,10.151806889975758
790,2.1032362429157818
802,9.925769848577009
803,9.925789011862346
2,1, 1, 1, 0, 2, 0.00,15.00,Tuesday
6,7.2
239,1.1590317983543688
312,27.291546072461857
313,35.85551193132629
349,38.746352911953348
350,21.727114690271084
599,0.0
600,0.0
603,0.0
604,0.0
645,0.17321412813387516
647,0.11361395989365442
649,0.5133333333333332
650,0.2333333333333333
662,198.01996171677184
663,0.0
726,43.0802597322445
727,0.0
730,13.30749415117903
731,0.003934902165991148
734,0.0
735,0.0
737,666.6214698329605
739,16.883865762212009
741,0.0
743,0.0
892,16.634676488068604
893,2.4510164000000005
894,7.200000000000003
895,0.8746269123088704
896,7.200000000000003
897,1.477140283588838
898,17.52367286288838
899,20.248713666666665
900,15.45910860949638
901,20.248713666666665
902,15.4496407711774
903,20.248713666666665
904,15.4496407711774
905,20.248713666666665
906,29.95813342102398
907,6.989016534958693
908,7.200000000000003
909,0.9042866813284826
910,7.200000000000003
911,0.9168537667674148
912,34.364710124536248
913,34.11413366666667
914,31.092986685719717
915,34.11413366666667
916,31.092986685719717
917,34.11413366666667
918,31.092986685719717
919,34.11413366666667
920,27.294021897774184
921,2.4510164000000005
922,19.977184336785148
923,2.4510164000000005
924,20.363774136211899
925,34.364710124536248
926,9.362441283835459
927,1.477140283588838
646,0.3333333333333333
648,0.39999999999999999
2,1, 1, 1, 0, 2,15.00,30.00,Tuesday
6,7.2
239,1.04120074682515
312,29.391678967616806
313,30.916053064209807
349,40.180131076338657
350,17.75402637728703
599,0.0
600,0.0
603,5145.213952683404
604,701.090446269621
645,0.04580891803183699
647,0.1144399267259379
649,0.6066666666666665
650,0.41999999999999995
662,2.0854498806885886
663,0.0
726,127.84585924657523
727,0.0
730,6.804006271740686
731,0.001480974547680309
734,4.2623700856100179
735,0.0053819104299106259
737,0.0
739,0.0
741,0.0
743,0.0
892,19.38864433911396
893,2.9882519333333339
894,7.200000000000003
895,1.056651628286031
896,7.200000000000003
897,0.1636171258045892
898,21.28219292386662
899,23.030445733333335
900,20.401330377753319
901,23.030445733333335
902,20.401330377753319
903,23.030445733333335
904,20.401330377753319
905,23.030445733333335
906,28.192048039463747
907,6.854261765961446
908,7.200000000000003
909,1.4201300968372855
910,7.200000000000003
911,1.1965033344037013
912,31.82277195302501
913,32.466982800000007
914,29.117356030272274
915,32.466982800000007
916,29.117356030272274
917,32.466982800000007
918,29.01962009587172