Program Version,EnergyPlus, Version 8.8.0-Unknown, YMD=2019.07.16 14:15
1,5,Environment Title[],Latitude[deg],Longitude[deg],Time Zone[],Elevation[m]
2,6,Day of Simulation[],Month[],Day of Month[],DST Indicator[1=yes 0=no],Hour[],StartMinute[],EndMinute[],DayType
3,3,Cumulative Day of Simulation[],Month[],Day of Month[],DST Indicator[1=yes 0=no],DayType  ! When Daily Report Variables Requested
4,2,Cumulative Days of Simulation[],Month[]  ! When Monthly Report Variables Requested
5,1,Cumulative Days of Simulation[] ! When Run Period Report Variables Requested
6,1,Environment,Site Outdoor Air Drybulb Temperature [C] !TimeStep
133,1,WESTDATACENTER_EQUIP,ITE CPU Electric Power [W] !Hourly
134,1,WESTDATACENTER_EQUIP,ITE Fan Electric Power [W] !Hourly
135,1,WESTDATACENTER_EQUIP,ITE UPS Electric Power [W] !Hourly
136,1,WESTDATACENTER_EQUIP,ITE CPU Electric Power at Design Inlet Conditions [W] !Hourly
137,1,WESTDATACENTER_EQUIP,ITE Fan Electric Power at Design Inlet Conditions [W] !Hourly
138,1,WESTDATACENTER_EQUIP,ITE UPS Heat Gain to Zone Rate [W] !Hourly
139,1,WESTDATACENTER_EQUIP,ITE Total Heat Gain to Zone Rate [W] !Hourly
173,1,WESTDATACENTER_EQUIP,ITE Standard Density Air Volume Flow Rate [m3/s] !Hourly
174,1,WESTDATACENTER_EQUIP,ITE Air Inlet Dry-Bulb Temperature [C] !Hourly
175,1,WESTDATACENTER_EQUIP,ITE Air Inlet Dewpoint Temperature [C] !Hourly
176,1,WESTDATACENTER_EQUIP,ITE Air Inlet Relative Humidity [%] !Hourly
177,1,WESTDATACENTER_EQUIP,ITE Air Outlet Dry-Bulb Temperature [C] !Hourly
178,1,WESTDATACENTER_EQUIP,ITE Supply Heat Index [] !Hourly
179,1,WESTDATACENTER_EQUIP,ITE Air Inlet Operating Range Exceeded Time [hr] !Hourly
180,1,WESTDATACENTER_EQUIP,ITE Air Inlet Dry-Bulb Temperature Above Operating Range Time [hr] !Hourly
181,1,WESTDATACENTER_EQUIP,ITE Air Inlet Dry-Bulb Temperature Below Operating Range Time [hr] !Hourly
182,1,WESTDATACENTER_EQUIP,ITE Air Inlet Dewpoint Temperature Above Operating Range Time [hr] !Hourly
183,1,WESTDATACENTER_EQUIP,ITE Air Inlet Dewpoint Temperature Below Operating Range Time [hr] !Hourly
184,1,WESTDATACENTER_EQUIP,ITE Air Inlet Relative Humidity Above Operating Range Time [hr] !Hourly
185,1,WESTDATACENTER_EQUIP,ITE Air Inlet Relative Humidity Below Operating Range Time [hr] !Hourly
186,1,WESTDATACENTER_EQUIP,ITE Air Inlet Dry-Bulb Temperature Difference Above Operating Range [deltaC] !Hourly
187,1,WESTDATACENTER_EQUIP,ITE Air Inlet Dry-Bulb Temperature Difference Below Operating Range [deltaC] !Hourly
188,1,WESTDATACENTER_EQUIP,ITE Air Inlet Dewpoint Temperature Difference Above Operating Range [deltaC] !Hourly
189,1,WESTDATACENTER_EQUIP,ITE Air Inlet Dewpoint Temperature Difference Below Operating Range [deltaC] !Hourly
190,1,WESTDATACENTER_EQUIP,ITE Air Inlet Relative Humidity Difference Above Operating Range [%] !Hourly
191,1,WESTDATACENTER_EQUIP,ITE Air Inlet Relative Humidity Difference Below Operating Range [%] !Hourly
192,1,WEST ZONE,Zone ITE CPU Electric Power [W] !Hourly
193,1,WEST ZONE,Zone ITE Fan Electric Power [W] !Hourly
194,1,WEST ZONE,Zone ITE UPS Electric Power [W] !Hourly
195,1,WEST ZONE,Zone ITE CPU Electric Power at Design Inlet Conditions [W] !Hourly
196,1,WEST ZONE,Zone ITE Fan Electric Power at Design Inlet Conditions [W] !Hourly
197,1,WEST ZONE,Zone ITE UPS Heat Gain to Zone Rate [W] !Hourly
198,1,WEST ZONE,Zone ITE Total Heat Gain to Zone Rate [W] !Hourly
199,1,EASTDATACENTER_EQUIP,ITE CPU Electric Power [W] !Hourly
200,1,EASTDATACENTER_EQUIP,ITE Fan Electric Power [W] !Hourly
201,1,EASTDATACENTER_EQUIP,ITE UPS Electric Power [W] !Hourly
202,1,EASTDATACENTER_EQUIP,ITE CPU Electric Power at Design Inlet Conditions [W] !Hourly
203,1,EASTDATACENTER_EQUIP,ITE Fan Electric Power at Design Inlet Conditions [W] !Hourly
204,1,EASTDATACENTER_EQUIP,ITE UPS Heat Gain to Zone Rate [W] !Hourly
205,1,EASTDATACENTER_EQUIP,ITE Total Heat Gain to Zone Rate [W] !Hourly
209,1,EASTDATACENTER_EQUIP,ITE Standard Density Air Volume Flow Rate [m3/s] !Hourly
210,1,EASTDATACENTER_EQUIP,ITE Air Inlet Dry-Bulb Temperature [C] !Hourly
211,1,EASTDATACENTER_EQUIP,ITE Air Inlet Dewpoint Temperature [C] !Hourly
212,1,EASTDATACENTER_EQUIP,ITE Air Inlet Relative Humidity [%] !Hourly
213,1,EASTDATACENTER_EQUIP,ITE Air Outlet Dry-Bulb Temperature [C] !Hourly
214,1,EASTDATACENTER_EQUIP,ITE Supply Heat Index [] !Hourly
215,1,EASTDATACENTER_EQUIP,ITE Air Inlet Operating Range Exceeded Time [hr] !Hourly
216,1,EASTDATACENTER_EQUIP,ITE Air Inlet Dry-Bulb Temperature Above Operating Range Time [hr] !Hourly
217,1,EASTDATACENTER_EQUIP,ITE Air Inlet Dry-Bulb Temperature Below Operating Range Time [hr] !Hourly
218,1,EASTDATACENTER_EQUIP,ITE Air Inlet Dewpoint Temperature Above Operating Range Time [hr] !Hourly
219,1,EASTDATACENTER_EQUIP,ITE Air Inlet Dewpoint Temperature Below Operating Range Time [hr] !Hourly
220,1,EASTDATACENTER_EQUIP,ITE Air Inlet Relative Humidity Above Operating Range Time [hr] !Hourly
221,1,EASTDATACENTER_EQUIP,ITE Air Inlet Relative Humidity Below Operating Range Time [hr] !Hourly
222,1,EASTDATACENTER_EQUIP,ITE Air Inlet Dry-Bulb Temperature Difference Above Operating Range [deltaC] !Hourly
223,1,EASTDATACENTER_EQUIP,ITE Air Inlet Dry-Bulb Temperature Difference Below Operating Range [deltaC] !Hourly
224,1,EASTDATACENTER_EQUIP,ITE Air Inlet Dewpoint Temperature Difference Above Operating Range [deltaC] !Hourly
225,1,EASTDATACENTER_EQUIP,ITE Air Inlet Dewpoint Temperature Difference Below Operating Range [deltaC] !Hourly
226,1,EASTDATACENTER_EQUIP,ITE Air Inlet Relative Humidity Difference Above Operating Range [%] !Hourly
227,1,EASTDATACENTER_EQUIP,ITE Air Inlet Relative Humidity Difference Below Operating Range [%] !Hourly
228,1,EAST ZONE,Zone ITE CPU Electric Power [W] !Hourly
229,1,EAST ZONE,Zone ITE Fan Electric Power [W] !Hourly
230,1,EAST ZONE,Zone ITE UPS Electric Power [W] !Hourly
231,1,EAST ZONE,Zone ITE CPU Electric Power at Design Inlet Conditions [W] !Hourly
232,1,EAST ZONE,Zone ITE Fan Electric Power at Design Inlet Conditions [W] !Hourly
233,1,EAST ZONE,Zone ITE UPS Heat Gain to Zone Rate [W] !Hourly
234,1,EAST ZONE,Zone ITE Total Heat Gain to Zone Rate [W] !Hourly
239,1,EMS,Power Utilization Effectiveness [] !TimeStep
312,1,WEST ZONE,Zone Air Temperature [C] !TimeStep
313,1,WEST ZONE,Zone Air Relative Humidity [%] !TimeStep
314,1,WEST ZONE,Zone Thermostat Control Type [] !Hourly
315,1,WEST ZONE,Zone Thermostat Heating Setpoint Temperature [C] !Hourly
316,1,WEST ZONE,Zone Thermostat Cooling Setpoint Temperature [C] !Hourly
349,1,EAST ZONE,Zone Air Temperature [C] !TimeStep
350,1,EAST ZONE,Zone Air Relative Humidity [%] !TimeStep
351,1,EAST ZONE,Zone Thermostat Control Type [] !Hourly
352,1,EAST ZONE,Zone Thermostat Heating Setpoint Temperature [C] !Hourly
353,1,EAST ZONE,Zone Thermostat Cooling Setpoint Temperature [C] !Hourly
386,1,WEST PLENUM,Zone Thermostat Control Type [] !Hourly
387,1,WEST PLENUM,Zone Thermostat Heating Setpoint Temperature [C] !Hourly
388,1,WEST PLENUM,Zone Thermostat Cooling Setpoint Temperature [C] !Hourly
421,1,EAST PLENUM,Zone Thermostat Control Type [] !Hourly
422,1,EAST PLENUM,Zone Thermostat Heating Setpoint Temperature [C] !Hourly
423,1,EAST PLENUM,Zone Thermostat Cooling Setpoint Temperature [C] !Hourly
517,1,Whole Building,Facility Total Building Electric Demand Power [W] !Hourly
518,1,Whole Building,Facility Total HVAC Electric Demand Power [W] !Hourly
519,1,Whole Building,Facility Total Electric Demand Power [W] !Hourly
520,1,WEST ZONE,Zone Oscillating Temperatures Time [hr] !Hourly
521,1,EAST ZONE,Zone Oscillating Temperatures Time [hr] !Hourly
522,1,WEST PLENUM,Zone Oscillating Temperatures Time [hr] !Hourly
523,1,EAST PLENUM,Zone Oscillating Temperatures Time [hr] !Hourly
524,1,Facility,Facility Any Zone Oscillating Temperatures Time [hr] !Hourly
525,1,WEST ZONE,Zone Heating Setpoint Not Met Time [hr] !Hourly
526,1,WEST ZONE,Zone Heating Setpoint Not Met While Occupied Time [hr] !Hourly
527,1,WEST ZONE,Zone Cooling Setpoint Not Met Time [hr] !Hourly
528,1,WEST ZONE,Zone Cooling Setpoint Not Met While Occupied Time [hr] !Hourly
529,1,EAST ZONE,Zone Heating Setpoint Not Met Time [hr] !Hourly
530,1,EAST ZONE,Zone Heating Setpoint Not Met While Occupied Time [hr] !Hourly
531,1,EAST ZONE,Zone Cooling Setpoint Not Met Time [hr] !Hourly
532,1,EAST ZONE,Zone Cooling Setpoint Not Met While Occupied Time [hr] !Hourly
533,1,WEST PLENUM,Zone Heating Setpoint Not Met Time [hr] !Hourly
534,1,WEST PLENUM,Zone Heating Setpoint Not Met While Occupied Time [hr] !Hourly
535,1,WEST PLENUM,Zone Cooling Setpoint Not Met Time [hr] !Hourly
536,1,WEST PLENUM,Zone Cooling Setpoint Not Met While Occupied Time [hr] !Hourly
537,1,EAST PLENUM,Zone Heating Setpoint Not Met Time [hr] !Hourly
538,1,EAST PLENUM,Zone Heating Setpoint Not Met While Occupied Time [hr] !Hourly
539,1,EAST PLENUM,Zone Cooling Setpoint Not Met Time [hr] !Hourly
540,1,EAST PLENUM,Zone Cooling Setpoint Not Met While Occupied Time [hr] !Hourly
541,1,WEST ZONE VAV SYSTEM,Zone Air Terminal VAV Damper Position [] !Hourly
542,1,WEST ZONE VAV SYSTEM,Zone Air Terminal Minimum Air Flow Fraction [] !Hourly
543,1,WEST ZONE VAV SYSTEM,Zone Air Terminal Outdoor Air Volume Flow Rate [m3/s] !Hourly
544,1,EAST ZONE VAV SYSTEM,Zone Air Terminal VAV Damper Position [] !Hourly
545,1,EAST ZONE VAV SYSTEM,Zone Air Terminal Minimum Air Flow Fraction [] !Hourly
546,1,EAST ZONE VAV SYSTEM,Zone Air Terminal Outdoor Air Volume Flow Rate [m3/s] !Hourly
599,1,WEST ZONE CW COOLING COIL,Cooling Coil Total Cooling Rate [W] !TimeStep
600,1,WEST ZONE CW COOLING COIL,Cooling Coil Sensible Cooling Rate [W] !TimeStep
603,1,EAST ZONE CW COOLING COIL,Cooling Coil Total Cooling Rate [W] !TimeStep
604,1,EAST ZONE CW COOLING COIL,Cooling Coil Sensible Cooling Rate [W] !TimeStep
605,1,WEST ZONE SUPPLY FAN,Fan Electric Power [W] !Hourly
606,1,WEST ZONE SUPPLY FAN,Fan Rise in Air Temperature [deltaC] !Hourly
607,1,WEST ZONE SUPPLY FAN,Fan Heat Gain to Air [W] !Hourly
608,1,WEST ZONE SUPPLY FAN,Fan Electric Energy [J] !Hourly
639,1,WEST ZONE SUPPLY FAN,Fan Air Mass Flow Rate [kg/s] !Hourly
640,1,EAST ZONE SUPPLY FAN,Fan Electric Power [W] !Hourly
641,1,EAST ZONE SUPPLY FAN,Fan Rise in Air Temperature [deltaC] !Hourly
642,1,EAST ZONE SUPPLY FAN,Fan Heat Gain to Air [W] !Hourly
643,1,EAST ZONE SUPPLY FAN,Fan Electric Energy [J] !Hourly
644,1,EAST ZONE SUPPLY FAN,Fan Air Mass Flow Rate [kg/s] !Hourly
645,1,WEST DATA CENTER IEC,Evaporative Cooler Total Stage Effectiveness [] !TimeStep
646,1,WEST DATA CENTER IEC,Evaporative Cooler Operating Mode Status [] !TimeStep
647,1,EAST DATA CENTER IEC,Evaporative Cooler Total Stage Effectiveness [] !TimeStep
648,1,EAST DATA CENTER IEC,Evaporative Cooler Operating Mode Status [] !TimeStep
649,1,WEST DATA CENTER DEC,Evaporative Cooler Stage Effectiveness [] !TimeStep
650,1,EAST DATA CENTER DEC,Evaporative Cooler Stage Effectiveness [] !TimeStep
662,1,WEST DATA CENTER IEC,Evaporative Cooler Electric Power [W] !TimeStep
663,1,WEST DATA CENTER IEC,Evaporative Cooler Water Volume [m3] !TimeStep
726,1,EAST DATA CENTER IEC,Evaporative Cooler Electric Power [W] !TimeStep
727,1,EAST DATA CENTER IEC,Evaporative Cooler Water Volume [m3] !TimeStep
730,1,WEST DATA CENTER DEC,Evaporative Cooler Electric Power [W] !TimeStep
731,1,WEST DATA CENTER DEC,Evaporative Cooler Water Volume [m3] !TimeStep
734,1,EAST DATA CENTER DEC,Evaporative Cooler Electric Power [W] !TimeStep
735,1,EAST DATA CENTER DEC,Evaporative Cooler Water Volume [m3] !TimeStep
737,1,WEST DX COOLING COIL,Cooling Coil Total Cooling Rate [W] !TimeStep
739,1,WEST DX COOLING COIL,Cooling Coil Sensible Cooling Rate [W] !TimeStep
741,1,EAST DX COOLING COIL,Cooling Coil Total Cooling Rate [W] !TimeStep
743,1,EAST DX COOLING COIL,Cooling Coil Sensible Cooling Rate [W] !TimeStep
766,1,CHILLER,Chiller Evaporator Cooling Rate [W] !Hourly
788,1,CHILLER,Chiller Evaporator Inlet Temperature [C] !Hourly
789,1,CHILLER,Chiller Evaporator Outlet Temperature [C] !Hourly
790,1,CHILLER,Chiller Condenser Heat Transfer Rate [W] !Hourly
802,1,CHILLER,Chiller Condenser Inlet Temperature [C] !Hourly
803,1,CHILLER,Chiller Condenser Outlet Temperature [C] !Hourly
892,1,WEST ZONE INLET NODE,System Node Temperature [C] !TimeStep
893,1,WEST ZONE INLET NODE,System Node Mass Flow Rate [kg/s] !TimeStep
894,1,WEST OUTSIDE AIR INLET NODE,System Node Temperature [C] !TimeStep
895,1,WEST OUTSIDE AIR INLET NODE,System Node Mass Flow Rate [kg/s] !TimeStep
896,1,WEST IEC SECONDARY AIR INLET NODE,System Node Temperature [C] !TimeStep
897,1,WEST IEC SECONDARY AIR INLET NODE,System Node Mass Flow Rate [kg/s] !TimeStep
898,1,WEST ZONE DEC OUTLET NODE,System Node Temperature [C] !TimeStep
899,1,WEST ZONE DEC OUTLET NODE,System Node Setpoint Temperature [C] !TimeStep
900,1,WEST ZONE IEC OUTLET NODE,System Node Temperature [C] !TimeStep
901,1,WEST ZONE IEC OUTLET NODE,System Node Setpoint Temperature [C] !TimeStep
902,1,WEST ZONE CCOIL AIR OUTLET NODE,System Node Temperature [C] !TimeStep
903,1,WEST ZONE CCOIL AIR OUTLET NODE,System Node Setpoint Temperature [C] !TimeStep
904,1,WEST AIR LOOP OUTLET NODE,System Node Temperature [C] !TimeStep
905,1,WEST AIR LOOP OUTLET NODE,System Node Setpoint Temperature [C] !TimeStep
906,1,EAST ZONE INLET NODE,System Node Temperature [C] !TimeStep
907,1,EAST ZONE INLET NODE,System Node Mass Flow Rate [kg/s] !TimeStep
908,1,EAST OUTSIDE AIR INLET NODE,System Node Temperature [C] !TimeStep
909,1,EAST OUTSIDE AIR INLET NODE,System Node Mass Flow Rate [kg/s] !TimeStep
910,1,EAST IEC SECONDARY AIR INLET NODE,System Node Temperature [C] !TimeStep
911,1,EAST IEC SECONDARY AIR INLET NODE,System Node Mass Flow Rate [kg/s] !TimeStep
912,1,EAST ZONE DEC OUTLET NODE,System Node Temperature [C] !TimeStep
913,1,EAST ZONE DEC OUTLET NODE,System Node Setpoint Temperature [C] !TimeStep
914,1,EAST ZONE IEC OUTLET NODE,System Node Temperature [C] !TimeStep
915,1,EAST ZONE IEC OUTLET NODE,System Node Setpoint Temperature [C] !TimeStep
916,1,EAST ZONE CCOIL AIR OUTLET NODE,System Node Temperature [C] !TimeStep
917,1,EAST ZONE CCOIL AIR OUTLET NODE,System Node Setpoint Temperature [C] !TimeStep
918,1,EAST AIR LOOP OUTLET NODE,System Node Temperature [C] !TimeStep
919,1,EAST AIR LOOP OUTLET NODE,System Node Setpoint Temperature [C] !TimeStep
920,1,WEST ZONE RETURN AIR NODE,System Node Temperature [C] !TimeStep
921,1,WEST ZONE RETURN AIR NODE,System Node Mass Flow Rate [kg/s] !TimeStep
922,1,WEST ZONE MIXED AIR NODE,System Node Temperature [C] !TimeStep
923,1,WEST ZONE MIXED AIR NODE,System Node Mass Flow Rate [kg/s] !TimeStep
924,1,WEST ZONE SUPPLY FAN OUTLET NODE,System Node Temperature [C] !TimeStep
925,1,EAST ZONE SUPPLY FAN OUTLET NODE,System Node Temperature [C] !TimeStep
926,1,WEST IEC SECONDARY AIR OUTLET NODE,System Node Temperature [C] !TimeStep
927,1,WEST IEC SECONDARY AIR OUTLET NODE,System Node Mass Flow Rate [kg/s] !TimeStep
End of Data Dictionary
1,WHOLEYEARDAY,  37.62,-122.40,  -8.00,   2.00
2,1, 1, 1, 0, 1, 0.00,15.00,Tuesday
6,6.825
239,1.0300298866314462
312,22.067029817804479
313,31.332336269488985
349,21.35795647857136
350,32.029966592310859
599,0.0
600,0.0
603,0.0
604,0.0
645,0.2642341041066034
647,0.0
649,0.175
650,0.7
662,3.6165778240657509
663,0.0
726,0.0
727,0.0
730,7.5
731,0.0011792238045481626
734,1.9307799865175326
735,0.001543768192801923
737,0.0
739,0.0
741,0.0
743,0.0
892,12.951565270689735
893,2.8720253356459617
894,6.825
895,2.0098015773000479
896,6.825
897,0.58088651739016
898,12.142797872113725
899,15.6910095
900,10.152311490387044
901,15.6910095
902,10.152311490387044
903,15.6910095
904,10.152311490387044
905,15.6910095
906,18.341052956317176
907,6.989016534958694
908,6.825
909,0.38789595337209079
910,6.825
911,0.0
912,20.478279789304876
913,34.7970885
914,20.478279789304876
915,34.7970885
916,20.478279789304876
917,34.7970885
918,20.478279789304876
919,34.7970885
920,22.78169436737543
921,2.8720253356459617
922,12.940970931172659
923,2.8720253356459617
924,13.368664051061828
925,20.880793716262436
926,9.741179384672723
927,0.58088651739016
646,0.5
648,0.0
2,1, 1, 1, 0, 1,15.00,30.00,Tuesday
6,6.95
239,1.1125645442577357
312,22.45597281525835
313,33.91898265302359
349,27.90106327610437
350,23.92767474353923
599,0.0
600,0.0
603,0.0
604,0.0
645,0.13448625115119135
647,0.011913108293780287
649,0.46666666666666659
650,0.6533333333333331
662,19.056553247194189
663,0.0
726,0.14567751363457258
727,0.0
730,7.756508214876107
731,0.003406858011757587
734,3.45302193398663
735,0.0032698261597834648
737,0.0
739,0.0
741,0.0
743,0.0
892,16.010710921455034
893,3.1794486000000008
894,6.9499999999999979
895,0.659095386530902
896,6.9499999999999979
897,0.5703870486462171
898,16.67255289995448
899,24.117410533333336
900,15.503553879155714
901,24.117410533333336
902,15.503553879155714
903,24.117410533333336
904,15.503553879155714
905,24.117410533333336
906,23.06604809699228
907,5.101159173658405
908,6.9499999999999979
909,0.44758049004246766
910,6.9499999999999979
911,0.05540846013675787
912,24.70777938610434
913,35.6789244
914,24.605869001680455
915,35.6789244
916,24.605869001680455
917,35.6789244
918,24.605869001680455
919,35.6789244
920,22.331362827438029
921,3.1794486000000008
922,17.967523654665614
923,3.1794486000000008
924,18.339090266484975
925,25.73097030648058
926,8.593052698817854
927,0.5703870486462171
646,0.26666666666666669
648,0.06666666666666667
2,1, 1, 1, 0, 1,30.00,45.00,Tuesday
6,7.075
239,1.0428175535680209
312,22.746264730962726
313,39.06626950916856
349,41.846962795170899
350,12.335992540618925
599,0.0
600,0.0
603,26.41186678718104
604,26.411866787180889
645,0.229377761585561
647,0.0
649,0.3733333333333333
650,0.6999999999999997
662,143.96234657189974
663,0.0
726,0.0
727,0.0
730,10.0
731,0.004204481080371344
734,2.3300467389398546
735,0.0016843750710197066
737,0.0
739,0.0
741,0.0
743,0.0
892,14.377019084039839
893,3.5611244018501027
894,7.075
895,1.1476327584113389
896,7.075
897,1.5401918856946649
898,14.831691518731006
899,20.16442726666667
900,12.748385367478692
901,20.16442726666667
902,12.748385367478692
903,20.16442726666667
904,12.748385367478692
905,20.16442726666667
906,32.133801917791597
907,4.176224404661159
908,7.075
909,0.4037531427686503
910,7.075
911,0.0
912,36.67732949568508
913,38.54859973333333
914,36.67732949568508
915,38.54859973333333
916,36.67732949568508
917,38.54859973333333
918,36.67215550158465
919,38.54859973333333
920,22.769357480130468
921,3.5611244018501027
922,16.45069120133141
923,3.5611244018501027
924,16.804206462564225
925,37.77861630779474
926,9.382405470223319
927,1.5401918856946649
646,0.39999999999999999
648,0.0
2,1, 1, 1, 0, 1,45.00,60.00,Tuesday
6,7.2
239,1.0182091137320717
312,24.94182111652333
313,36.82729262740874
349,43.98766820352944
350,12.683392048890142
599,0.0
600,0.0
603,3513.358383689446
604,240.73329351406563
645,0.21607299719618196
647,0.12702220549103269
649,0.41999999999999995
650,0.32666666666666668
662,196.31241543840577
663,0.0
726,113.72159957326898
727,0.0
730,11.045657471034819
731,0.00278001757680602
734,4.784942967000425
735,0.005764046513166122
737,1633.1925478144703
739,86.72889863189451
741,0.0
743,0.0
892,15.622288198873627
893,2.9254716
894,7.200000000000003
895,1.0824996532678073
896,7.200000000000003
897,1.5045689626052213
898,17.17515587891767
899,22.15927853333334
900,14.98803101014439
901,22.15927853333334
902,14.943173235490067
903,22.15927853333334
904,14.943173235490067
905,22.15927853333334
906,27.58088263080519
907,5.390103409322317
908,7.200000000000003
909,1.442706622383533
910,7.200000000000003
911,1.0806294156274024
912,31.880863144356178
913,33.91663486666667
914,28.74119230045496
915,33.91663486666667
916,28.74119230045496
917,33.91663486666667
918,28.703825533479056
919,33.91663486666667
920,24.741069986659175
921,2.9254716
922,19.139199819226336
923,2.9254716
924,19.515714887735343
925,33.91157454957865
926,9.574681951762614
927,1.5045689626052213
646,0.39999999999999999
648,0.3333333333333333
2,1, 1, 1, 0, 1, 0.00,60.00,Tuesday
133,14221.436747745596
134,10503.907373496928
135,2472.5344121242515
136,13936.849545599995
137,10219.334400000002
138,2472.5344121242515
139,27197.878533366777
173,3.8239114885517324
174,15.15315589968688
175,7.13246225577164
176,0.5880161009748589
177,22.89710834366126
178,0.09203767913880166
179,1.0
180,0.0
181,0.0
182,0.0
183,0.0
184,0.0
185,1.0
186,0.0
187,0.0
188,0.0
189,0.0
190,0.0
191,-19.41198389902514
192,14221.436747745596
193,10503.907373496928
194,2472.5344121242515
195,13936.849545599995
196,10219.334400000002
197,2472.5344121242515
198,27197.878533366777
199,35148.44830358656
200,31000.63376789818
201,6614.908207148474
202,15546.354479999996
203,11399.520000000002
204,6614.908207148474
205,72763.99027863323
209,10.789960773527492
210,24.457075887707548
211,5.440564291408178
212,0.3272439416220979
213,31.904913484236297
214,0.08550047552018511
215,1.0
216,0.25
217,0.0
218,0.0
219,0.0
220,0.0
221,1.0
222,0.09615313377712909
223,0.0
224,0.0
225,0.0
226,0.0
227,-19.672756058377904
228,35148.44830358656
229,31000.63376789818
230,6614.908207148474
231,15546.354479999996
232,11399.520000000002
233,6614.908207148474
234,72763.99027863323
315,20.0
316,23.0
352,20.0
353,23.0
387,0.0
388,0.0
422,0.0
423,0.0
525,0.0
526,0.0
527,0.25
528,0.0
529,0.0
530,0.0
531,0.75
532,0.0
533,0.0
534,0.0
535,0.0
536,0.0
537,0.0
538,0.0
539,0.0
540,0.0
314,4.0
351,4.0
386,0.0
421,0.0
517,99990.268812
518,3825.5134466872114
519,103815.78225868719
520,0.016666666666666668
521,0.05
522,0.03333333333333333
523,0.05
524,0.15
541,0.5024794103578455
542,0.4
543,1.0172207264643008
544,0.7746620506002483
545,0.4
546,0.5568697162843845
605,1226.0251653284213
606,0.3823225153625859
607,1103.4226487955789
608,4413690.595182316
639,3.1345174843740164
640,1871.3375911473536
641,0.31827496632148896
642,1684.2038320326183
643,6736815.328130472
644,5.414125880650144
766,642.1418183577457
788,10.234742888510047
789,10.019858929473346
790,735.4427683084583
802,9.948453451508856
803,9.955154432803049
2,1, 1, 1, 0, 2, 0.00,15.00,Tuesday
6,7.2
239,1.0544057277622059
312,26.28191373715873
313,35.98276836288521
349,45.37140469487652
350,11.53925971038548
599,0.0
600,0.0
603,4.054759307971486
604,4.054759307969003
645,0.11936642417750748
647,0.0434182840967023
649,0.5133333333333332
650,0.09333333333333333
662,16.247966544119359
663,0.0
726,5.213417025084856
727,0.0
730,8.36344988076447
731,0.003271263237841462
734,0.0
735,0.0
737,0.0
739,0.0
741,0.0
743,0.0
892,17.71746110119502
893,3.4264779123445137
894,7.200000000000003
895,0.9698382183393124
896,7.200000000000003
897,0.5491439862836363
898,20.206299664097604
899,25.684389799999999
900,18.892261882959319
901,25.684389799999999
902,18.892261882959319
903,25.684389799999999
904,18.892261882959319
905,25.684389799999999
906,33.339201194297427
907,4.566764978319564
908,7.200000000000003
909,0.7915286400210848
910,7.200000000000003
911,0.27517522515700107
912,38.85234044138744
913,38.854834733333337
914,37.663709151471
915,38.854834733333337
916,37.663709151471
917,38.854834733333337
918,37.66303652477194
919,38.854834733333337
920,26.279348032490434
921,3.4264779123445137
922,21.769319474775878
923,3.4264779123445137
924,22.12460985778275
925,38.85234044138744
926,9.719698350615142
927,0.5491439862836363
646,0.26666666666666669
648,0.39999999999999999
2,1, 1, 1, 0, 2,15.00,30.00,Tuesday
6,7.2
239,1.0248285475181767
312,29.163112946833988
313,31.22461381657511
349,47.21800066607972
350,10.505670432492952
599,0.0
600,0.0
603,1293.3360712796969
604,1293.3360712796675
645,0.1387836474152243
647,0.14359082851625799
649,0.6066666666666665
650,0.32666666666666668
662,97.69233037122396
663,0.0
726,133.34935939865947
727,0.0
730,11.256298741224484
731,0.005120860273013418
734,2.1582153843896516
735,0.0029015235722009526
737,4290.8320120166545
739,490.6732885543014
741,0.0
743,0.0
892,19.564722733335296
893,3.571560801850103
894,7.200000000000003
895,0.90722722337863
896,7.200000000000003
897,0.8240888509794266
898,19.94801385065417
899,24.481234066666667
900,18.485373901361535
901,24.481234066666667
902,18.40818404791518
903,24.481234066666667
904,18.40818404791518
905,24.481234066666667
906,28.335426891525939
907,5.127246942655652
908,7.200000000000003
909,1.7847199747940606
910,7.200000000000003
911,1.303655819986578
912,32.87984643612633
913,34.677763866666669
914,29.06423763724067
915,34.677763866666669
916,29.06423763724067
917,34.677763866666669
918,28.805592456749989
919,34.677763866666669
920,28.764027249105028
921,3.571560801850103
922,22.102638650468824
923,3.571560801850103
924,22.457813792507229
925,33.856448688364078
926