Program Version,EnergyPlus, Version 8.8.0-Unknown, YMD=2019.07.16 14:15
1,5,Environment Title[],Latitude[deg],Longitude[deg],Time Zone[],Elevation[m]
2,6,Day of Simulation[],Month[],Day of Month[],DST Indicator[1=yes 0=no],Hour[],StartMinute[],EndMinute[],DayType
3,3,Cumulative Day of Simulation[],Month[],Day of Month[],DST Indicator[1=yes 0=no],DayType  ! When Daily Report Variables Requested
4,2,Cumulative Days of Simulation[],Month[]  ! When Monthly Report Variables Requested
5,1,Cumulative Days of Simulation[] ! When Run Period Report Variables Requested
6,1,Environment,Site Outdoor Air Drybulb Temperature [C] !TimeStep
133,1,WESTDATACENTER_EQUIP,ITE CPU Electric Power [W] !Hourly
134,1,WESTDATACENTER_EQUIP,ITE Fan Electric Power [W] !Hourly
135,1,WESTDATACENTER_EQUIP,ITE UPS Electric Power [W] !Hourly
136,1,WESTDATACENTER_EQUIP,ITE CPU Electric Power at Design Inlet Conditions [W] !Hourly
137,1,WESTDATACENTER_EQUIP,ITE Fan Electric Power at Design Inlet Conditions [W] !Hourly
138,1,WESTDATACENTER_EQUIP,ITE UPS Heat Gain to Zone Rate [W] !Hourly
139,1,WESTDATACENTER_EQUIP,ITE Total Heat Gain to Zone Rate [W] !Hourly
173,1,WESTDATACENTER_EQUIP,ITE Standard Density Air Volume Flow Rate [m3/s] !Hourly
174,1,WESTDATACENTER_EQUIP,ITE Air Inlet Dry-Bulb Temperature [C] !Hourly
175,1,WESTDATACENTER_EQUIP,ITE Air Inlet Dewpoint Temperature [C] !Hourly
176,1,WESTDATACENTER_EQUIP,ITE Air Inlet Relative Humidity [%] !Hourly
177,1,WESTDATACENTER_EQUIP,ITE Air Outlet Dry-Bulb Temperature [C] !Hourly
178,1,WESTDATACENTER_EQUIP,ITE Supply Heat Index [] !Hourly
179,1,WESTDATACENTER_EQUIP,ITE Air Inlet Operating Range Exceeded Time [hr] !Hourly
180,1,WESTDATACENTER_EQUIP,ITE Air Inlet Dry-Bulb Temperature Above Operating Range Time [hr] !Hourly
181,1,WESTDATACENTER_EQUIP,ITE Air Inlet Dry-Bulb Temperature Below Operating Range Time [hr] !Hourly
182,1,WESTDATACENTER_EQUIP,ITE Air Inlet Dewpoint Temperature Above Operating Range Time [hr] !Hourly
183,1,WESTDATACENTER_EQUIP,ITE Air Inlet Dewpoint Temperature Below Operating Range Time [hr] !Hourly
184,1,WESTDATACENTER_EQUIP,ITE Air Inlet Relative Humidity Above Operating Range Time [hr] !Hourly
185,1,WESTDATACENTER_EQUIP,ITE Air Inlet Relative Humidity Below Operating Range Time [hr] !Hourly
186,1,WESTDATACENTER_EQUIP,ITE Air Inlet Dry-Bulb Temperature Difference Above Operating Range [deltaC] !Hourly
187,1,WESTDATACENTER_EQUIP,ITE Air Inlet Dry-Bulb Temperature Difference Below Operating Range [deltaC] !Hourly
188,1,WESTDATACENTER_EQUIP,ITE Air Inlet Dewpoint Temperature Difference Above Operating Range [deltaC] !Hourly
189,1,WESTDATACENTER_EQUIP,ITE Air Inlet Dewpoint Temperature Difference Below Operating Range [deltaC] !Hourly
190,1,WESTDATACENTER_EQUIP,ITE Air Inlet Relative Humidity Difference Above Operating Range [%] !Hourly
191,1,WESTDATACENTER_EQUIP,ITE Air Inlet Relative Humidity Difference Below Operating Range [%] !Hourly
192,1,WEST ZONE,Zone ITE CPU Electric Power [W] !Hourly
193,1,WEST ZONE,Zone ITE Fan Electric Power [W] !Hourly
194,1,WEST ZONE,Zone ITE UPS Electric Power [W] !Hourly
195,1,WEST ZONE,Zone ITE CPU Electric Power at Design Inlet Conditions [W] !Hourly
196,1,WEST ZONE,Zone ITE Fan Electric Power at Design Inlet Conditions [W] !Hourly
197,1,WEST ZONE,Zone ITE UPS Heat Gain to Zone Rate [W] !Hourly
198,1,WEST ZONE,Zone ITE Total Heat Gain to Zone Rate [W] !Hourly
199,1,EASTDATACENTER_EQUIP,ITE CPU Electric Power [W] !Hourly
200,1,EASTDATACENTER_EQUIP,ITE Fan Electric Power [W] !Hourly
201,1,EASTDATACENTER_EQUIP,ITE UPS Electric Power [W] !Hourly
202,1,EASTDATACENTER_EQUIP,ITE CPU Electric Power at Design Inlet Conditions [W] !Hourly
203,1,EASTDATACENTER_EQUIP,ITE Fan Electric Power at Design Inlet Conditions [W] !Hourly
204,1,EASTDATACENTER_EQUIP,ITE UPS Heat Gain to Zone Rate [W] !Hourly
205,1,EASTDATACENTER_EQUIP,ITE Total Heat Gain to Zone Rate [W] !Hourly
209,1,EASTDATACENTER_EQUIP,ITE Standard Density Air Volume Flow Rate [m3/s] !Hourly
210,1,EASTDATACENTER_EQUIP,ITE Air Inlet Dry-Bulb Temperature [C] !Hourly
211,1,EASTDATACENTER_EQUIP,ITE Air Inlet Dewpoint Temperature [C] !Hourly
212,1,EASTDATACENTER_EQUIP,ITE Air Inlet Relative Humidity [%] !Hourly
213,1,EASTDATACENTER_EQUIP,ITE Air Outlet Dry-Bulb Temperature [C] !Hourly
214,1,EASTDATACENTER_EQUIP,ITE Supply Heat Index [] !Hourly
215,1,EASTDATACENTER_EQUIP,ITE Air Inlet Operating Range Exceeded Time [hr] !Hourly
216,1,EASTDATACENTER_EQUIP,ITE Air Inlet Dry-Bulb Temperature Above Operating Range Time [hr] !Hourly
217,1,EASTDATACENTER_EQUIP,ITE Air Inlet Dry-Bulb Temperature Below Operating Range Time [hr] !Hourly
218,1,EASTDATACENTER_EQUIP,ITE Air Inlet Dewpoint Temperature Above Operating Range Time [hr] !Hourly
219,1,EASTDATACENTER_EQUIP,ITE Air Inlet Dewpoint Temperature Below Operating Range Time [hr] !Hourly
220,1,EASTDATACENTER_EQUIP,ITE Air Inlet Relative Humidity Above Operating Range Time [hr] !Hourly
221,1,EASTDATACENTER_EQUIP,ITE Air Inlet Relative Humidity Below Operating Range Time [hr] !Hourly
222,1,EASTDATACENTER_EQUIP,ITE Air Inlet Dry-Bulb Temperature Difference Above Operating Range [deltaC] !Hourly
223,1,EASTDATACENTER_EQUIP,ITE Air Inlet Dry-Bulb Temperature Difference Below Operating Range [deltaC] !Hourly
224,1,EASTDATACENTER_EQUIP,ITE Air Inlet Dewpoint Temperature Difference Above Operating Range [deltaC] !Hourly
225,1,EASTDATACENTER_EQUIP,ITE Air Inlet Dewpoint Temperature Difference Below Operating Range [deltaC] !Hourly
226,1,EASTDATACENTER_EQUIP,ITE Air Inlet Relative Humidity Difference Above Operating Range [%] !Hourly
227,1,EASTDATACENTER_EQUIP,ITE Air Inlet Relative Humidity Difference Below Operating Range [%] !Hourly
228,1,EAST ZONE,Zone ITE CPU Electric Power [W] !Hourly
229,1,EAST ZONE,Zone ITE Fan Electric Power [W] !Hourly
230,1,EAST ZONE,Zone ITE UPS Electric Power [W] !Hourly
231,1,EAST ZONE,Zone ITE CPU Electric Power at Design Inlet Conditions [W] !Hourly
232,1,EAST ZONE,Zone ITE Fan Electric Power at Design Inlet Conditions [W] !Hourly
233,1,EAST ZONE,Zone ITE UPS Heat Gain to Zone Rate [W] !Hourly
234,1,EAST ZONE,Zone ITE Total Heat Gain to Zone Rate [W] !Hourly
239,1,EMS,Power Utilization Effectiveness [] !TimeStep
312,1,WEST ZONE,Zone Air Temperature [C] !TimeStep
313,1,WEST ZONE,Zone Air Relative Humidity [%] !TimeStep
314,1,WEST ZONE,Zone Thermostat Control Type [] !Hourly
315,1,WEST ZONE,Zone Thermostat Heating Setpoint Temperature [C] !Hourly
316,1,WEST ZONE,Zone Thermostat Cooling Setpoint Temperature [C] !Hourly
349,1,EAST ZONE,Zone Air Temperature [C] !TimeStep
350,1,EAST ZONE,Zone Air Relative Humidity [%] !TimeStep
351,1,EAST ZONE,Zone Thermostat Control Type [] !Hourly
352,1,EAST ZONE,Zone Thermostat Heating Setpoint Temperature [C] !Hourly
353,1,EAST ZONE,Zone Thermostat Cooling Setpoint Temperature [C] !Hourly
386,1,WEST PLENUM,Zone Thermostat Control Type [] !Hourly
387,1,WEST PLENUM,Zone Thermostat Heating Setpoint Temperature [C] !Hourly
388,1,WEST PLENUM,Zone Thermostat Cooling Setpoint Temperature [C] !Hourly
421,1,EAST PLENUM,Zone Thermostat Control Type [] !Hourly
422,1,EAST PLENUM,Zone Thermostat Heating Setpoint Temperature [C] !Hourly
423,1,EAST PLENUM,Zone Thermostat Cooling Setpoint Temperature [C] !Hourly
517,1,Whole Building,Facility Total Building Electric Demand Power [W] !Hourly
518,1,Whole Building,Facility Total HVAC Electric Demand Power [W] !Hourly
519,1,Whole Building,Facility Total Electric Demand Power [W] !Hourly
520,1,WEST ZONE,Zone Oscillating Temperatures Time [hr] !Hourly
521,1,EAST ZONE,Zone Oscillating Temperatures Time [hr] !Hourly
522,1,WEST PLENUM,Zone Oscillating Temperatures Time [hr] !Hourly
523,1,EAST PLENUM,Zone Oscillating Temperatures Time [hr] !Hourly
524,1,Facility,Facility Any Zone Oscillating Temperatures Time [hr] !Hourly
525,1,WEST ZONE,Zone Heating Setpoint Not Met Time [hr] !Hourly
526,1,WEST ZONE,Zone Heating Setpoint Not Met While Occupied Time [hr] !Hourly
527,1,WEST ZONE,Zone Cooling Setpoint Not Met Time [hr] !Hourly
528,1,WEST ZONE,Zone Cooling Setpoint Not Met While Occupied Time [hr] !Hourly
529,1,EAST ZONE,Zone Heating Setpoint Not Met Time [hr] !Hourly
530,1,EAST ZONE,Zone Heating Setpoint Not Met While Occupied Time [hr] !Hourly
531,1,EAST ZONE,Zone Cooling Setpoint Not Met Time [hr] !Hourly
532,1,EAST ZONE,Zone Cooling Setpoint Not Met While Occupied Time [hr] !Hourly
533,1,WEST PLENUM,Zone Heating Setpoint Not Met Time [hr] !Hourly
534,1,WEST PLENUM,Zone Heating Setpoint Not Met While Occupied Time [hr] !Hourly
535,1,WEST PLENUM,Zone Cooling Setpoint Not Met Time [hr] !Hourly
536,1,WEST PLENUM,Zone Cooling Setpoint Not Met While Occupied Time [hr] !Hourly
537,1,EAST PLENUM,Zone Heating Setpoint Not Met Time [hr] !Hourly
538,1,EAST PLENUM,Zone Heating Setpoint Not Met While Occupied Time [hr] !Hourly
539,1,EAST PLENUM,Zone Cooling Setpoint Not Met Time [hr] !Hourly
540,1,EAST PLENUM,Zone Cooling Setpoint Not Met While Occupied Time [hr] !Hourly
541,1,WEST ZONE VAV SYSTEM,Zone Air Terminal VAV Damper Position [] !Hourly
542,1,WEST ZONE VAV SYSTEM,Zone Air Terminal Minimum Air Flow Fraction [] !Hourly
543,1,WEST ZONE VAV SYSTEM,Zone Air Terminal Outdoor Air Volume Flow Rate [m3/s] !Hourly
544,1,EAST ZONE VAV SYSTEM,Zone Air Terminal VAV Damper Position [] !Hourly
545,1,EAST ZONE VAV SYSTEM,Zone Air Terminal Minimum Air Flow Fraction [] !Hourly
546,1,EAST ZONE VAV SYSTEM,Zone Air Terminal Outdoor Air Volume Flow Rate [m3/s] !Hourly
599,1,WEST ZONE CW COOLING COIL,Cooling Coil Total Cooling Rate [W] !TimeStep
600,1,WEST ZONE CW COOLING COIL,Cooling Coil Sensible Cooling Rate [W] !TimeStep
603,1,EAST ZONE CW COOLING COIL,Cooling Coil Total Cooling Rate [W] !TimeStep
604,1,EAST ZONE CW COOLING COIL,Cooling Coil Sensible Cooling Rate [W] !TimeStep
605,1,WEST ZONE SUPPLY FAN,Fan Electric Power [W] !Hourly
606,1,WEST ZONE SUPPLY FAN,Fan Rise in Air Temperature [deltaC] !Hourly
607,1,WEST ZONE SUPPLY FAN,Fan Heat Gain to Air [W] !Hourly
608,1,WEST ZONE SUPPLY FAN,Fan Electric Energy [J] !Hourly
639,1,WEST ZONE SUPPLY FAN,Fan Air Mass Flow Rate [kg/s] !Hourly
640,1,EAST ZONE SUPPLY FAN,Fan Electric Power [W] !Hourly
641,1,EAST ZONE SUPPLY FAN,Fan Rise in Air Temperature [deltaC] !Hourly
642,1,EAST ZONE SUPPLY FAN,Fan Heat Gain to Air [W] !Hourly
643,1,EAST ZONE SUPPLY FAN,Fan Electric Energy [J] !Hourly
644,1,EAST ZONE SUPPLY FAN,Fan Air Mass Flow Rate [kg/s] !Hourly
645,1,WEST DATA CENTER IEC,Evaporative Cooler Total Stage Effectiveness [] !TimeStep
646,1,WEST DATA CENTER IEC,Evaporative Cooler Operating Mode Status [] !TimeStep
647,1,EAST DATA CENTER IEC,Evaporative Cooler Total Stage Effectiveness [] !TimeStep
648,1,EAST DATA CENTER IEC,Evaporative Cooler Operating Mode Status [] !TimeStep
649,1,WEST DATA CENTER DEC,Evaporative Cooler Stage Effectiveness [] !TimeStep
650,1,EAST DATA CENTER DEC,Evaporative Cooler Stage Effectiveness [] !TimeStep
662,1,WEST DATA CENTER IEC,Evaporative Cooler Electric Power [W] !TimeStep
663,1,WEST DATA CENTER IEC,Evaporative Cooler Water Volume [m3] !TimeStep
726,1,EAST DATA CENTER IEC,Evaporative Cooler Electric Power [W] !TimeStep
727,1,EAST DATA CENTER IEC,Evaporative Cooler Water Volume [m3] !TimeStep
730,1,WEST DATA CENTER DEC,Evaporative Cooler Electric Power [W] !TimeStep
731,1,WEST DATA CENTER DEC,Evaporative Cooler Water Volume [m3] !TimeStep
734,1,EAST DATA CENTER DEC,Evaporative Cooler Electric Power [W] !TimeStep
735,1,EAST DATA CENTER DEC,Evaporative Cooler Water Volume [m3] !TimeStep
737,1,WEST DX COOLING COIL,Cooling Coil Total Cooling Rate [W] !TimeStep
739,1,WEST DX COOLING COIL,Cooling Coil Sensible Cooling Rate [W] !TimeStep
741,1,EAST DX COOLING COIL,Cooling Coil Total Cooling Rate [W] !TimeStep
743,1,EAST DX COOLING COIL,Cooling Coil Sensible Cooling Rate [W] !TimeStep
766,1,CHILLER,Chiller Evaporator Cooling Rate [W] !Hourly
788,1,CHILLER,Chiller Evaporator Inlet Temperature [C] !Hourly
789,1,CHILLER,Chiller Evaporator Outlet Temperature [C] !Hourly
790,1,CHILLER,Chiller Condenser Heat Transfer Rate [W] !Hourly
802,1,CHILLER,Chiller Condenser Inlet Temperature [C] !Hourly
803,1,CHILLER,Chiller Condenser Outlet Temperature [C] !Hourly
892,1,WEST ZONE INLET NODE,System Node Temperature [C] !TimeStep
893,1,WEST ZONE INLET NODE,System Node Mass Flow Rate [kg/s] !TimeStep
894,1,WEST OUTSIDE AIR INLET NODE,System Node Temperature [C] !TimeStep
895,1,WEST OUTSIDE AIR INLET NODE,System Node Mass Flow Rate [kg/s] !TimeStep
896,1,WEST IEC SECONDARY AIR INLET NODE,System Node Temperature [C] !TimeStep
897,1,WEST IEC SECONDARY AIR INLET NODE,System Node Mass Flow Rate [kg/s] !TimeStep
898,1,WEST ZONE DEC OUTLET NODE,System Node Temperature [C] !TimeStep
899,1,WEST ZONE DEC OUTLET NODE,System Node Setpoint Temperature [C] !TimeStep
900,1,WEST ZONE IEC OUTLET NODE,System Node Temperature [C] !TimeStep
901,1,WEST ZONE IEC OUTLET NODE,System Node Setpoint Temperature [C] !TimeStep
902,1,WEST ZONE CCOIL AIR OUTLET NODE,System Node Temperature [C] !TimeStep
903,1,WEST ZONE CCOIL AIR OUTLET NODE,System Node Setpoint Temperature [C] !TimeStep
904,1,WEST AIR LOOP OUTLET NODE,System Node Temperature [C] !TimeStep
905,1,WEST AIR LOOP OUTLET NODE,System Node Setpoint Temperature [C] !TimeStep
906,1,EAST ZONE INLET NODE,System Node Temperature [C] !TimeStep
907,1,EAST ZONE INLET NODE,System Node Mass Flow Rate [kg/s] !TimeStep
908,1,EAST OUTSIDE AIR INLET NODE,System Node Temperature [C] !TimeStep
909,1,EAST OUTSIDE AIR INLET NODE,System Node Mass Flow Rate [kg/s] !TimeStep
910,1,EAST IEC SECONDARY AIR INLET NODE,System Node Temperature [C] !TimeStep
911,1,EAST IEC SECONDARY AIR INLET NODE,System Node Mass Flow Rate [kg/s] !TimeStep
912,1,EAST ZONE DEC OUTLET NODE,System Node Temperature [C] !TimeStep
913,1,EAST ZONE DEC OUTLET NODE,System Node Setpoint Temperature [C] !TimeStep
914,1,EAST ZONE IEC OUTLET NODE,System Node Temperature [C] !TimeStep
915,1,EAST ZONE IEC OUTLET NODE,System Node Setpoint Temperature [C] !TimeStep
916,1,EAST ZONE CCOIL AIR OUTLET NODE,System Node Temperature [C] !TimeStep
917,1,EAST ZONE CCOIL AIR OUTLET NODE,System Node Setpoint Temperature [C] !TimeStep
918,1,EAST AIR LOOP OUTLET NODE,System Node Temperature [C] !TimeStep
919,1,EAST AIR LOOP OUTLET NODE,System Node Setpoint Temperature [C] !TimeStep
920,1,WEST ZONE RETURN AIR NODE,System Node Temperature [C] !TimeStep
921,1,WEST ZONE RETURN AIR NODE,System Node Mass Flow Rate [kg/s] !TimeStep
922,1,WEST ZONE MIXED AIR NODE,System Node Temperature [C] !TimeStep
923,1,WEST ZONE MIXED AIR NODE,System Node Mass Flow Rate [kg/s] !TimeStep
924,1,WEST ZONE SUPPLY FAN OUTLET NODE,System Node Temperature [C] !TimeStep
925,1,EAST ZONE SUPPLY FAN OUTLET NODE,System Node Temperature [C] !TimeStep
926,1,WEST IEC SECONDARY AIR OUTLET NODE,System Node Temperature [C] !TimeStep
927,1,WEST IEC SECONDARY AIR OUTLET NODE,System Node Mass Flow Rate [kg/s] !TimeStep
End of Data Dictionary
1,WHOLEYEARDAY,  37.62,-122.40,  -8.00,   2.00
2,1, 1, 1, 0, 1, 0.00,15.00,Tuesday
6,6.825
239,1.0300298866314462
312,23.278341885832899
313,30.196768358440538
349,24.33303999894685
350,26.507934114667969
599,0.0
600,0.0
603,0.0
604,0.0
645,0.07639155108727
647,0.0
649,0.6066666666666665
650,0.6999999999999997
662,20.449209775409334
663,0.0
726,0.0
727,0.0
730,6.675614783112998
731,0.0031466857814941519
734,0.0
735,0.0
737,0.0
739,0.0
741,0.0
743,0.0
892,17.90890314083224
893,3.62538088950559
894,6.825
895,0.5148587735063974
896,6.825
897,0.4752105719219339
898,19.649207457569895
899,26.876352400000003
900,18.899420618263208
901,26.876352400000003
902,18.899420618263208
903,26.876352400000003
904,18.899420618263208
905,26.876352400000003
906,21.95767923319127
907,5.495069911652897
908,6.825
909,0.0
910,6.825
911,0.0
912,24.439650456102247
913,39.119086333333338
914,24.439650456102247
915,39.119086333333338
916,24.439650456102247
917,39.119086333333338
918,24.439650456102247
919,39.119086333333338
920,23.354323726830736
921,3.62538088950559
922,20.938295631019419
923,3.62538088950559
924,21.27413825945463
925,24.439650456102247
926,7.849957101282354
927,0.4752105719219339
646,0.13333333333333334
648,0.0
2,1, 1, 1, 0, 1,15.00,30.00,Tuesday
6,6.95
239,1.0988006275993448
312,22.267339877495954
313,38.5802135016571
349,35.52144350299616
350,15.19397366064265
599,0.0
600,0.0
603,0.0
604,0.0
645,0.08160090358158227
647,0.01506106730479301
649,0.6066666666666665
650,0.6999999999999997
662,35.866281059273649
663,0.0
726,0.07397068782534785
727,0.0
730,9.278406916180652
731,0.003918291139845851
734,4.2803239050126919
735,0.003757301431797033
737,0.0
739,0.0
741,0.0
743,0.0
892,18.374013420064736
893,3.537920468516769
894,6.9499999999999979
895,0.4855327155225539
896,6.9499999999999979
897,0.5662879878327909
898,18.202538646986498
899,24.380317533333334
900,17.465832530216344
901,24.380317533333334
902,17.465832530216344
903,24.380317533333334
904,17.465832530216344
905,24.380317533333334
906,28.001113036666824
907,4.623503942655652
908,6.9499999999999979
909,0.23352422209464403
910,6.9499999999999979
911,0.04466766849856992
912,30.741739620677725
913,35.85353886666667
914,30.50399084933433
915,35.85353886666667
916,30.50399084933433
917,35.85353886666667
918,30.50399084933433
919,35.85353886666667
920,22.353185597263388
921,3.537920468516769
922,19.603519762603815
923,3.537920468516769
924,19.95617897514374
925,32.59901445931534
926,8.498617477094799
927,0.5662879878327909
646,0.2
648,0.06666666666666667
2,1, 1, 1, 0, 1,30.00,45.00,Tuesday
6,7.075
239,1.0299633664019783
312,25.769291619001569
313,34.08349868655383
349,47.14051383877719
350,9.996883531075364
599,0.0
600,0.0
603,11.431031365244025
604,11.431031365241484
645,0.14528470066822284
647,0.02233830619371341
649,0.46666666666666659
650,0.6066666666666665
662,18.646038309056619
663,0.0
726,0.1407913182483262
727,0.0
730,6.91091263349807
731,0.003149444307216003
734,2.7242183982435548
735,0.00469363297496037
737,0.0
739,0.0
741,0.0
743,0.0
892,17.967287596291585
893,3.2449830228389238
894,7.075
895,0.9260723335863396
896,7.075
897,0.6399838332518388
898,18.477127638569948
899,23.822039266666665
900,17.293287619389117
901,23.822039266666665
902,17.293287619389117
903,23.822039266666665
904,17.293287619389117
905,23.822039266666665
906,31.328051521964203
907,4.343902204661159
908,7.075
909,0.9135575204538655
910,7.075
911,0.0815511566717896
912,36.45250523231532
913,37.819705533333337
914,36.14364880686292
915,37.819705533333337
916,36.14364880686292
917,37.819705533333337
918,36.14152606428606
919,37.819705533333337
920,25.26431627905322
921,3.2449830228389238
922,19.73653107655264
923,3.2449830228389238
924,20.091167800351717
925,37.7073625867311
926,8.89532455547777
927,0.6399838332518388
646,0.3333333333333333
648,0.13333333333333334
2,1, 1, 1, 0, 1,45.00,60.00,Tuesday
6,7.2
239,1.0155287993779243
312,27.778914411543803
313,33.52871075464343
349,50.60754763638718
350,8.52347227999447
599,0.0
600,0.0
603,11.922861630151218
604,11.922861630150646
645,0.1341605842363094
647,0.04098388785971023
649,0.5599999999999998
650,0.27999999999999999
662,109.80516536246978
663,0.0
726,2.1867761882092298
727,0.0
730,10.846097661575945
731,0.005486588486653097
734,0.7157757910473931
735,0.000979804556558034
737,3439.0609867210014
739,307.1114850600531
741,0.0
743,0.0
892,19.120007453612659
893,3.9916196913556938
894,7.200000000000003
895,1.095810008182296
896,7.200000000000003
897,0.9837564589112595
898,20.730907320752669
899,25.612199
900,19.232975194403463
901,25.612199
902,19.184662176385186
903,25.612199
904,19.184662176385186
905,25.612199
906,33.65088069623238
907,4.346799640325072
908,7.200000000000003
909,1.213629791849924
910,7.200000000000003
911,0.22791731774828553
912,37.94001544374547
913,38.2704226
914,36.66594827939753
915,38.2704226
916,36.66594827939753
917,38.2704226
918,36.664269598682718
919,38.2704226
920,27.75607309098018
921,3.9916196913556938
922,23.058811282074868
923,3.9916196913556938
924,23.41174424336738
925,38.27227425313739
926,10.411498720353717
927,0.9837564589112595
646,0.3333333333333333
648,0.26666666666666669
2,1, 1, 1, 0, 1, 0.00,60.00,Tuesday
133,15220.092539678124
134,11502.513235136375
135,2672.260577481449
136,13936.849545599995
137,10219.334400000002
138,2672.260577481449
139,29394.866352295947
173,4.166419561527439
174,15.690601101501292
175,8.033953099313472
176,0.6096955612261058
177,23.48025374511142
178,0.10596820299652249
179,1.0
180,0.0
181,0.0
182,0.0
183,0.0
184,0.0
185,1.0
186,0.0
187,0.0
188,0.0
189,0.0
190,0.0
191,-19.390304438773894
192,15220.092539678124
193,11502.513235136375
194,2672.260577481449
195,13936.849545599995
196,10219.334400000002
197,2672.260577481449
198,29394.866352295947
199,41442.151667037964
200,37294.02246191488
201,7873.6174128952825
202,15546.354479999996
203,11399.520000000002
204,7873.6174128952825
205,86609.79154184812
209,12.859966262130517
210,27.493487755671447
211,5.3160953325469439
212,0.2776638476881873
213,34.931574865807238
214,0.08874158132661622
215,1.0
216,0.5
217,0.0
218,0.0
219,0.0
220,0.0
221,1.0
222,0.33853826372116027
223,0.0
224,0.0
225,0.0
226,0.0
227,-19.72233615231181
228,41442.151667037964
229,37294.02246191488
230,7873.6174128952825
231,15546.354479999996
232,11399.520000000002
233,7873.6174128952825
234,86609.79154184812
315,20.0
316,23.0
352,20.0
353,23.0
387,0.0
388,0.0
422,0.0
423,0.0
525,0.0
526,0.0
527,0.75
528,0.0
529,0.0
530,0.0
531,1.0
532,0.0
533,0.0
534,0.0
535,0.0
536,0.0
537,0.0
538,0.0
539,0.0
540,0.0
314,4.0
351,4.0
386,0.0
421,0.0
517,116033.05789414409
518,3528.0665052812883
519,119561.12439942538
520,0.0
521,0.0
522,0.016666666666666668
523,0.11666666666666667
524,0.13333333333333334
541,0.5770948274724755
542,0.4
543,0.6275364661225086
544,0.6728155386817218
545,0.4
546,0.4901715254041304
605,1310.7710900224324
606,0.34901788151668136
607,1179.6939810201893
608,4718775.924080757
639,3.5999760180542439
640,1658.697097876899
641,0.3335992760502648
642,1492.8273880892093
643,5971309.552356835
644,4.702318924823695
766,0.9834561599108003
788,10.205095974937765
789,10.044831251693865
790,1.1258888558468184
802,9.943498791893477
803,9.9435090503044
2,1, 1, 1, 0, 2, 0.00,15.00,Tuesday
6,7.2
239,1.1192117663220112
312,25.829230337730228
313,36.62119125313609
349,50.39191739067219
350,8.442290906894739
599,0.0
600,0.0
603,17.836161091357626
604,17.836161091355867
645,0.2431459780368594
647,0.04277121875049864
649,0.46666666666666659
650,0.5133333333333332
662,388.21243833278927
663,0.0
726,4.6672854275014219
727,0.0
730,12.28836005838878
731,0.004469667375484073
734,2.5403616584927475
735,0.0012734672697713756
737,5033.677687536936
739,240.9151256545581
741,0.0
743,0.0
892,15.834748202353046
893,3.3709471333333336
894,7.200000000000003
895,1.192407407437948
896,7.200000000000003
897,2.6139076834756427
898,17.554158862868915
899,22.710578400000004
900,14.787984915086732
901,22.710578400000004
902,14.693375900211656
903,22.710578400000004
904,14.693375900211656
905,22.710578400000004
906,32.3388826404197
907,4.013775671327826
908,7.200000000000003
909,1.2550445037887324
910,7.200000000000003
911,0.23577720207685494
912,36.1339883001193
913,37.474211133333337
914,34.76824847112121
915,37.474211133333337
916,34.76824847112121
917,37.474211133333337
918,34.76573527053908
919,37.474211133333337
920,25.91005706970803
921,3.3709471333333336
922,19.85718383435427
923,3.3709471333333336
924,20.186414592598309
925,37.33123910181064
926,9.288920607013628
927,2.6139076834756427
646,0.39999999999999999
648,0.2
2,1, 1, 1, 0, 2,15.00,30.00,Tuesday
6,7.2
239,1.014095041226357
312,22.536721681029034
313,43.6850793199733
349,49.52190182035286
350,9.70318641930948
599,0.0
600,0.0
603,0.0
604,0.0
645,0.1459299514444882
647,0.04677162053487501
649,0.41999999999999995
650,0.3733333333333333
662,206.2637430905155
663,0.0
726,0.5855222420111333
727,0.0
730,9.94737827078876
731,0.004808629195696518
734,3.12012810492312
735,0.0034902718179576988
737,2177.1677425748435
739,176.26292459771933
741,0.0
743,0.0
892,15.119005077547252
893,4.41998417901118
894,7.200000000000003
895,1.2630105850705916
896,7.200000000000003
897,1.5546362452554015
898,16.26746320802775
899,20.795189866666669
900,14.858127659312624
901,20.795189866666669
902,14.819188776920085
903,20.795189866666669
904,14.819188776920085
905,20.795189866666669
906,32.17365373734029
907,4.848778871327826
908,7.200000000000003
909,1.4647075472008842
910,7.200000000000003
911,0.20043201205044149
912,35.99239040041363
913,37.31997233333333
914,35.02359298528807
915,37.31997233333333
916,35.02359298528807
917,37.31997233333333
918,35.02359298528807