Program Version,EnergyPlus, Version 8.8.0-Unknown, YMD=2019.07.16 14:25
1,5,Environment Title[],Latitude[deg],Longitude[deg],Time Zone[],Elevation[m]
2,6,Day of Simulation[],Month[],Day of Month[],DST Indicator[1=yes 0=no],Hour[],StartMinute[],EndMinute[],DayType
3,3,Cumulative Day of Simulation[],Month[],Day of Month[],DST Indicator[1=yes 0=no],DayType  ! When Daily Report Variables Requested
4,2,Cumulative Days of Simulation[],Month[]  ! When Monthly Report Variables Requested
5,1,Cumulative Days of Simulation[] ! When Run Period Report Variables Requested
6,1,Environment,Site Outdoor Air Drybulb Temperature [C] !TimeStep
133,1,WESTDATACENTER_EQUIP,ITE CPU Electric Power [W] !Hourly
134,1,WESTDATACENTER_EQUIP,ITE Fan Electric Power [W] !Hourly
135,1,WESTDATACENTER_EQUIP,ITE UPS Electric Power [W] !Hourly
136,1,WESTDATACENTER_EQUIP,ITE CPU Electric Power at Design Inlet Conditions [W] !Hourly
137,1,WESTDATACENTER_EQUIP,ITE Fan Electric Power at Design Inlet Conditions [W] !Hourly
138,1,WESTDATACENTER_EQUIP,ITE UPS Heat Gain to Zone Rate [W] !Hourly
139,1,WESTDATACENTER_EQUIP,ITE Total Heat Gain to Zone Rate [W] !Hourly
173,1,WESTDATACENTER_EQUIP,ITE Standard Density Air Volume Flow Rate [m3/s] !Hourly
174,1,WESTDATACENTER_EQUIP,ITE Air Inlet Dry-Bulb Temperature [C] !Hourly
175,1,WESTDATACENTER_EQUIP,ITE Air Inlet Dewpoint Temperature [C] !Hourly
176,1,WESTDATACENTER_EQUIP,ITE Air Inlet Relative Humidity [%] !Hourly
177,1,WESTDATACENTER_EQUIP,ITE Air Outlet Dry-Bulb Temperature [C] !Hourly
178,1,WESTDATACENTER_EQUIP,ITE Supply Heat Index [] !Hourly
179,1,WESTDATACENTER_EQUIP,ITE Air Inlet Operating Range Exceeded Time [hr] !Hourly
180,1,WESTDATACENTER_EQUIP,ITE Air Inlet Dry-Bulb Temperature Above Operating Range Time [hr] !Hourly
181,1,WESTDATACENTER_EQUIP,ITE Air Inlet Dry-Bulb Temperature Below Operating Range Time [hr] !Hourly
182,1,WESTDATACENTER_EQUIP,ITE Air Inlet Dewpoint Temperature Above Operating Range Time [hr] !Hourly
183,1,WESTDATACENTER_EQUIP,ITE Air Inlet Dewpoint Temperature Below Operating Range Time [hr] !Hourly
184,1,WESTDATACENTER_EQUIP,ITE Air Inlet Relative Humidity Above Operating Range Time [hr] !Hourly
185,1,WESTDATACENTER_EQUIP,ITE Air Inlet Relative Humidity Below Operating Range Time [hr] !Hourly
186,1,WESTDATACENTER_EQUIP,ITE Air Inlet Dry-Bulb Temperature Difference Above Operating Range [deltaC] !Hourly
187,1,WESTDATACENTER_EQUIP,ITE Air Inlet Dry-Bulb Temperature Difference Below Operating Range [deltaC] !Hourly
188,1,WESTDATACENTER_EQUIP,ITE Air Inlet Dewpoint Temperature Difference Above Operating Range [deltaC] !Hourly
189,1,WESTDATACENTER_EQUIP,ITE Air Inlet Dewpoint Temperature Difference Below Operating Range [deltaC] !Hourly
190,1,WESTDATACENTER_EQUIP,ITE Air Inlet Relative Humidity Difference Above Operating Range [%] !Hourly
191,1,WESTDATACENTER_EQUIP,ITE Air Inlet Relative Humidity Difference Below Operating Range [%] !Hourly
192,1,WEST ZONE,Zone ITE CPU Electric Power [W] !Hourly
193,1,WEST ZONE,Zone ITE Fan Electric Power [W] !Hourly
194,1,WEST ZONE,Zone ITE UPS Electric Power [W] !Hourly
195,1,WEST ZONE,Zone ITE CPU Electric Power at Design Inlet Conditions [W] !Hourly
196,1,WEST ZONE,Zone ITE Fan Electric Power at Design Inlet Conditions [W] !Hourly
197,1,WEST ZONE,Zone ITE UPS Heat Gain to Zone Rate [W] !Hourly
198,1,WEST ZONE,Zone ITE Total Heat Gain to Zone Rate [W] !Hourly
199,1,EASTDATACENTER_EQUIP,ITE CPU Electric Power [W] !Hourly
200,1,EASTDATACENTER_EQUIP,ITE Fan Electric Power [W] !Hourly
201,1,EASTDATACENTER_EQUIP,ITE UPS Electric Power [W] !Hourly
202,1,EASTDATACENTER_EQUIP,ITE CPU Electric Power at Design Inlet Conditions [W] !Hourly
203,1,EASTDATACENTER_EQUIP,ITE Fan Electric Power at Design Inlet Conditions [W] !Hourly
204,1,EASTDATACENTER_EQUIP,ITE UPS Heat Gain to Zone Rate [W] !Hourly
205,1,EASTDATACENTER_EQUIP,ITE Total Heat Gain to Zone Rate [W] !Hourly
209,1,EASTDATACENTER_EQUIP,ITE Standard Density Air Volume Flow Rate [m3/s] !Hourly
210,1,EASTDATACENTER_EQUIP,ITE Air Inlet Dry-Bulb Temperature [C] !Hourly
211,1,EASTDATACENTER_EQUIP,ITE Air Inlet Dewpoint Temperature [C] !Hourly
212,1,EASTDATACENTER_EQUIP,ITE Air Inlet Relative Humidity [%] !Hourly
213,1,EASTDATACENTER_EQUIP,ITE Air Outlet Dry-Bulb Temperature [C] !Hourly
214,1,EASTDATACENTER_EQUIP,ITE Supply Heat Index [] !Hourly
215,1,EASTDATACENTER_EQUIP,ITE Air Inlet Operating Range Exceeded Time [hr] !Hourly
216,1,EASTDATACENTER_EQUIP,ITE Air Inlet Dry-Bulb Temperature Above Operating Range Time [hr] !Hourly
217,1,EASTDATACENTER_EQUIP,ITE Air Inlet Dry-Bulb Temperature Below Operating Range Time [hr] !Hourly
218,1,EASTDATACENTER_EQUIP,ITE Air Inlet Dewpoint Temperature Above Operating Range Time [hr] !Hourly
219,1,EASTDATACENTER_EQUIP,ITE Air Inlet Dewpoint Temperature Below Operating Range Time [hr] !Hourly
220,1,EASTDATACENTER_EQUIP,ITE Air Inlet Relative Humidity Above Operating Range Time [hr] !Hourly
221,1,EASTDATACENTER_EQUIP,ITE Air Inlet Relative Humidity Below Operating Range Time [hr] !Hourly
222,1,EASTDATACENTER_EQUIP,ITE Air Inlet Dry-Bulb Temperature Difference Above Operating Range [deltaC] !Hourly
223,1,EASTDATACENTER_EQUIP,ITE Air Inlet Dry-Bulb Temperature Difference Below Operating Range [deltaC] !Hourly
224,1,EASTDATACENTER_EQUIP,ITE Air Inlet Dewpoint Temperature Difference Above Operating Range [deltaC] !Hourly
225,1,EASTDATACENTER_EQUIP,ITE Air Inlet Dewpoint Temperature Difference Below Operating Range [deltaC] !Hourly
226,1,EASTDATACENTER_EQUIP,ITE Air Inlet Relative Humidity Difference Above Operating Range [%] !Hourly
227,1,EASTDATACENTER_EQUIP,ITE Air Inlet Relative Humidity Difference Below Operating Range [%] !Hourly
228,1,EAST ZONE,Zone ITE CPU Electric Power [W] !Hourly
229,1,EAST ZONE,Zone ITE Fan Electric Power [W] !Hourly
230,1,EAST ZONE,Zone ITE UPS Electric Power [W] !Hourly
231,1,EAST ZONE,Zone ITE CPU Electric Power at Design Inlet Conditions [W] !Hourly
232,1,EAST ZONE,Zone ITE Fan Electric Power at Design Inlet Conditions [W] !Hourly
233,1,EAST ZONE,Zone ITE UPS Heat Gain to Zone Rate [W] !Hourly
234,1,EAST ZONE,Zone ITE Total Heat Gain to Zone Rate [W] !Hourly
239,1,EMS,Power Utilization Effectiveness [] !TimeStep
312,1,WEST ZONE,Zone Air Temperature [C] !TimeStep
313,1,WEST ZONE,Zone Air Relative Humidity [%] !TimeStep
314,1,WEST ZONE,Zone Thermostat Control Type [] !Hourly
315,1,WEST ZONE,Zone Thermostat Heating Setpoint Temperature [C] !Hourly
316,1,WEST ZONE,Zone Thermostat Cooling Setpoint Temperature [C] !Hourly
349,1,EAST ZONE,Zone Air Temperature [C] !TimeStep
350,1,EAST ZONE,Zone Air Relative Humidity [%] !TimeStep
351,1,EAST ZONE,Zone Thermostat Control Type [] !Hourly
352,1,EAST ZONE,Zone Thermostat Heating Setpoint Temperature [C] !Hourly
353,1,EAST ZONE,Zone Thermostat Cooling Setpoint Temperature [C] !Hourly
386,1,WEST PLENUM,Zone Thermostat Control Type [] !Hourly
387,1,WEST PLENUM,Zone Thermostat Heating Setpoint Temperature [C] !Hourly
388,1,WEST PLENUM,Zone Thermostat Cooling Setpoint Temperature [C] !Hourly
421,1,EAST PLENUM,Zone Thermostat Control Type [] !Hourly
422,1,EAST PLENUM,Zone Thermostat Heating Setpoint Temperature [C] !Hourly
423,1,EAST PLENUM,Zone Thermostat Cooling Setpoint Temperature [C] !Hourly
517,1,Whole Building,Facility Total Building Electric Demand Power [W] !Hourly
518,1,Whole Building,Facility Total HVAC Electric Demand Power [W] !Hourly
519,1,Whole Building,Facility Total Electric Demand Power [W] !Hourly
520,1,WEST ZONE,Zone Oscillating Temperatures Time [hr] !Hourly
521,1,EAST ZONE,Zone Oscillating Temperatures Time [hr] !Hourly
522,1,WEST PLENUM,Zone Oscillating Temperatures Time [hr] !Hourly
523,1,EAST PLENUM,Zone Oscillating Temperatures Time [hr] !Hourly
524,1,Facility,Facility Any Zone Oscillating Temperatures Time [hr] !Hourly
525,1,WEST ZONE,Zone Heating Setpoint Not Met Time [hr] !Hourly
526,1,WEST ZONE,Zone Heating Setpoint Not Met While Occupied Time [hr] !Hourly
527,1,WEST ZONE,Zone Cooling Setpoint Not Met Time [hr] !Hourly
528,1,WEST ZONE,Zone Cooling Setpoint Not Met While Occupied Time [hr] !Hourly
529,1,EAST ZONE,Zone Heating Setpoint Not Met Time [hr] !Hourly
530,1,EAST ZONE,Zone Heating Setpoint Not Met While Occupied Time [hr] !Hourly
531,1,EAST ZONE,Zone Cooling Setpoint Not Met Time [hr] !Hourly
532,1,EAST ZONE,Zone Cooling Setpoint Not Met While Occupied Time [hr] !Hourly
533,1,WEST PLENUM,Zone Heating Setpoint Not Met Time [hr] !Hourly
534,1,WEST PLENUM,Zone Heating Setpoint Not Met While Occupied Time [hr] !Hourly
535,1,WEST PLENUM,Zone Cooling Setpoint Not Met Time [hr] !Hourly
536,1,WEST PLENUM,Zone Cooling Setpoint Not Met While Occupied Time [hr] !Hourly
537,1,EAST PLENUM,Zone Heating Setpoint Not Met Time [hr] !Hourly
538,1,EAST PLENUM,Zone Heating Setpoint Not Met While Occupied Time [hr] !Hourly
539,1,EAST PLENUM,Zone Cooling Setpoint Not Met Time [hr] !Hourly
540,1,EAST PLENUM,Zone Cooling Setpoint Not Met While Occupied Time [hr] !Hourly
541,1,WEST ZONE VAV SYSTEM,Zone Air Terminal VAV Damper Position [] !Hourly
542,1,WEST ZONE VAV SYSTEM,Zone Air Terminal Minimum Air Flow Fraction [] !Hourly
543,1,WEST ZONE VAV SYSTEM,Zone Air Terminal Outdoor Air Volume Flow Rate [m3/s] !Hourly
544,1,EAST ZONE VAV SYSTEM,Zone Air Terminal VAV Damper Position [] !Hourly
545,1,EAST ZONE VAV SYSTEM,Zone Air Terminal Minimum Air Flow Fraction [] !Hourly
546,1,EAST ZONE VAV SYSTEM,Zone Air Terminal Outdoor Air Volume Flow Rate [m3/s] !Hourly
599,1,WEST ZONE CW COOLING COIL,Cooling Coil Total Cooling Rate [W] !TimeStep
600,1,WEST ZONE CW COOLING COIL,Cooling Coil Sensible Cooling Rate [W] !TimeStep
603,1,EAST ZONE CW COOLING COIL,Cooling Coil Total Cooling Rate [W] !TimeStep
604,1,EAST ZONE CW COOLING COIL,Cooling Coil Sensible Cooling Rate [W] !TimeStep
605,1,WEST ZONE SUPPLY FAN,Fan Electric Power [W] !Hourly
606,1,WEST ZONE SUPPLY FAN,Fan Rise in Air Temperature [deltaC] !Hourly
607,1,WEST ZONE SUPPLY FAN,Fan Heat Gain to Air [W] !Hourly
608,1,WEST ZONE SUPPLY FAN,Fan Electric Energy [J] !Hourly
639,1,WEST ZONE SUPPLY FAN,Fan Air Mass Flow Rate [kg/s] !Hourly
640,1,EAST ZONE SUPPLY FAN,Fan Electric Power [W] !Hourly
641,1,EAST ZONE SUPPLY FAN,Fan Rise in Air Temperature [deltaC] !Hourly
642,1,EAST ZONE SUPPLY FAN,Fan Heat Gain to Air [W] !Hourly
643,1,EAST ZONE SUPPLY FAN,Fan Electric Energy [J] !Hourly
644,1,EAST ZONE SUPPLY FAN,Fan Air Mass Flow Rate [kg/s] !Hourly
645,1,WEST DATA CENTER IEC,Evaporative Cooler Total Stage Effectiveness [] !TimeStep
646,1,WEST DATA CENTER IEC,Evaporative Cooler Operating Mode Status [] !TimeStep
647,1,EAST DATA CENTER IEC,Evaporative Cooler Total Stage Effectiveness [] !TimeStep
648,1,EAST DATA CENTER IEC,Evaporative Cooler Operating Mode Status [] !TimeStep
649,1,WEST DATA CENTER DEC,Evaporative Cooler Stage Effectiveness [] !TimeStep
650,1,EAST DATA CENTER DEC,Evaporative Cooler Stage Effectiveness [] !TimeStep
662,1,WEST DATA CENTER IEC,Evaporative Cooler Electric Power [W] !TimeStep
663,1,WEST DATA CENTER IEC,Evaporative Cooler Water Volume [m3] !TimeStep
726,1,EAST DATA CENTER IEC,Evaporative Cooler Electric Power [W] !TimeStep
727,1,EAST DATA CENTER IEC,Evaporative Cooler Water Volume [m3] !TimeStep
730,1,WEST DATA CENTER DEC,Evaporative Cooler Electric Power [W] !TimeStep
731,1,WEST DATA CENTER DEC,Evaporative Cooler Water Volume [m3] !TimeStep
734,1,EAST DATA CENTER DEC,Evaporative Cooler Electric Power [W] !TimeStep
735,1,EAST DATA CENTER DEC,Evaporative Cooler Water Volume [m3] !TimeStep
737,1,WEST DX COOLING COIL,Cooling Coil Total Cooling Rate [W] !TimeStep
739,1,WEST DX COOLING COIL,Cooling Coil Sensible Cooling Rate [W] !TimeStep
741,1,EAST DX COOLING COIL,Cooling Coil Total Cooling Rate [W] !TimeStep
743,1,EAST DX COOLING COIL,Cooling Coil Sensible Cooling Rate [W] !TimeStep
766,1,CHILLER,Chiller Evaporator Cooling Rate [W] !Hourly
788,1,CHILLER,Chiller Evaporator Inlet Temperature [C] !Hourly
789,1,CHILLER,Chiller Evaporator Outlet Temperature [C] !Hourly
790,1,CHILLER,Chiller Condenser Heat Transfer Rate [W] !Hourly
802,1,CHILLER,Chiller Condenser Inlet Temperature [C] !Hourly
803,1,CHILLER,Chiller Condenser Outlet Temperature [C] !Hourly
892,1,WEST ZONE INLET NODE,System Node Temperature [C] !TimeStep
893,1,WEST ZONE INLET NODE,System Node Mass Flow Rate [kg/s] !TimeStep
894,1,WEST OUTSIDE AIR INLET NODE,System Node Temperature [C] !TimeStep
895,1,WEST OUTSIDE AIR INLET NODE,System Node Mass Flow Rate [kg/s] !TimeStep
896,1,WEST IEC SECONDARY AIR INLET NODE,System Node Temperature [C] !TimeStep
897,1,WEST IEC SECONDARY AIR INLET NODE,System Node Mass Flow Rate [kg/s] !TimeStep
898,1,WEST ZONE DEC OUTLET NODE,System Node Temperature [C] !TimeStep
899,1,WEST ZONE DEC OUTLET NODE,System Node Setpoint Temperature [C] !TimeStep
900,1,WEST ZONE IEC OUTLET NODE,System Node Temperature [C] !TimeStep
901,1,WEST ZONE IEC OUTLET NODE,System Node Setpoint Temperature [C] !TimeStep
902,1,WEST ZONE CCOIL AIR OUTLET NODE,System Node Temperature [C] !TimeStep
903,1,WEST ZONE CCOIL AIR OUTLET NODE,System Node Setpoint Temperature [C] !TimeStep
904,1,WEST AIR LOOP OUTLET NODE,System Node Temperature [C] !TimeStep
905,1,WEST AIR LOOP OUTLET NODE,System Node Setpoint Temperature [C] !TimeStep
906,1,EAST ZONE INLET NODE,System Node Temperature [C] !TimeStep
907,1,EAST ZONE INLET NODE,System Node Mass Flow Rate [kg/s] !TimeStep
908,1,EAST OUTSIDE AIR INLET NODE,System Node Temperature [C] !TimeStep
909,1,EAST OUTSIDE AIR INLET NODE,System Node Mass Flow Rate [kg/s] !TimeStep
910,1,EAST IEC SECONDARY AIR INLET NODE,System Node Temperature [C] !TimeStep
911,1,EAST IEC SECONDARY AIR INLET NODE,System Node Mass Flow Rate [kg/s] !TimeStep
912,1,EAST ZONE DEC OUTLET NODE,System Node Temperature [C] !TimeStep
913,1,EAST ZONE DEC OUTLET NODE,System Node Setpoint Temperature [C] !TimeStep
914,1,EAST ZONE IEC OUTLET NODE,System Node Temperature [C] !TimeStep
915,1,EAST ZONE IEC OUTLET NODE,System Node Setpoint Temperature [C] !TimeStep
916,1,EAST ZONE CCOIL AIR OUTLET NODE,System Node Temperature [C] !TimeStep
917,1,EAST ZONE CCOIL AIR OUTLET NODE,System Node Setpoint Temperature [C] !TimeStep
918,1,EAST AIR LOOP OUTLET NODE,System Node Temperature [C] !TimeStep
919,1,EAST AIR LOOP OUTLET NODE,System Node Setpoint Temperature [C] !TimeStep
920,1,WEST ZONE RETURN AIR NODE,System Node Temperature [C] !TimeStep
921,1,WEST ZONE RETURN AIR NODE,System Node Mass Flow Rate [kg/s] !TimeStep
922,1,WEST ZONE MIXED AIR NODE,System Node Temperature [C] !TimeStep
923,1,WEST ZONE MIXED AIR NODE,System Node Mass Flow Rate [kg/s] !TimeStep
924,1,WEST ZONE SUPPLY FAN OUTLET NODE,System Node Temperature [C] !TimeStep
925,1,EAST ZONE SUPPLY FAN OUTLET NODE,System Node Temperature [C] !TimeStep
926,1,WEST IEC SECONDARY AIR OUTLET NODE,System Node Temperature [C] !TimeStep
927,1,WEST IEC SECONDARY AIR OUTLET NODE,System Node Mass Flow Rate [kg/s] !TimeStep
End of Data Dictionary
1,WHOLEYEARDAY,  37.62,-122.40,  -8.00,   2.00
2,1, 1, 1, 0, 1, 0.00,15.00,Tuesday
6,6.825
239,1.0300298866314462
312,23.160843721618059
313,29.901263366170217
349,22.229067490675769
350,32.06033832575827
599,0.0
600,0.0
603,0.0
604,0.0
645,0.05568347966230103
647,0.04521364017410114
649,0.5599999999999998
650,0.6533333333333331
662,1.0018176372066646
663,0.0
726,34.92078668976568
727,0.0
730,4.0
731,0.00095657023925956
734,3.1898053737703959
735,0.003107163990795799
737,0.0
739,0.0
741,0.0
743,0.0
892,17.540858970650534
893,2.6862761999999997
894,6.825
895,0.5493794495059077
896,6.825
897,0.1254765876685422
898,19.416711033809916
899,27.29243493333333
900,18.890278480626479
901,27.29243493333333
902,18.890278480626479
903,27.29243493333333
904,18.890278480626479
905,27.29243493333333
906,19.20138328940029
907,6.775454627966954
908,6.825
909,0.4533626104093036
910,6.825
911,0.4421571470580374
912,20.677305801311634
913,31.95112686666667
914,20.235120779898265
915,31.95112686666667
916,20.235120779898265
917,31.95112686666667
918,20.235120779898265
919,31.95112686666667
920,23.054974242418575
921,2.6862761999999997
922,20.018036920719348
923,2.6862761999999997
924,20.408936725624814
925,21.48458519961749
926,7.904376318270383
927,0.1254765876685422
646,0.13333333333333334
648,0.06666666666666667
2,1, 1, 1, 0, 1,15.00,30.00,Tuesday
6,6.95
239,1.0825187555203904
312,31.376165968079847
313,21.11303855861459
349,30.17472561355227
350,22.66480758710259
599,0.0
600,0.0
603,0.0
604,0.0
645,0.15707872759028519
647,0.012087370458100558
649,0.46666666666666659
650,0.6999999999999997
662,20.088303302458298
663,0.0
726,0.26682828323094867
727,0.0
730,10.825962989080692
731,0.004918385384629577
734,2.0
735,0.0030066890943358816
737,0.0
739,0.0
741,0.0
743,0.0
892,16.857376016193617
893,2.2367139333333339
894,6.9499999999999979
895,0.8835003475414205
896,6.9499999999999979
897,0.5694363148161712
898,17.671107105778299
899,23.382921399999998
900,15.989391955035382
901,23.382921399999998
902,15.989391955035382
903,23.382921399999998
904,15.989391955035382
905,23.382921399999998
906,25.65368693108159
907,6.551091423305795
908,6.9499999999999979
909,0.2856107119091239
910,6.9499999999999979
911,0.06843824419441208
912,27.917644345829367
913,35.749058733333338
914,27.76611551922175
915,35.749058733333338
916,27.76611551922175
917,35.749058733333338
918,27.76611551922175
919,35.749058733333338
920,30.778094476937608
921,2.2367139333333339
922,20.514506155793808
923,2.2367139333333339
924,20.941537580252985
925,28.699055232019718
926,10.205312709189084
927,0.5694363148161712
646,0.3333333333333333
648,0.06666666666666667
2,1, 1, 1, 0, 1,30.00,45.00,Tuesday
6,7.075
239,1.0225491378792314
312,29.57325634924702
313,29.90282184237014
349,37.48222737426594
350,17.576112907452037
599,0.0
600,0.0
603,0.0
604,0.0
645,0.049473976785893238
647,0.03528592557710816
649,0.6999999999999997
650,0.6066666666666665
662,0.1511933397233022
663,0.0
726,5.648342651084086
727,0.0
730,12.540868366541528
731,0.0045231128873482648
734,4.12643912545623
735,0.006336595508423432
737,0.0
739,0.0
741,0.0
743,0.0
892,20.941159060397838
893,2.274794066666667
894,7.075
895,0.43489828028931917
896,7.075
897,0.08466464434665391
898,22.47262504460917
899,27.292612000000003
900,21.88756219027106
901,27.292612000000003
902,21.88756219027106
903,27.292612000000003
904,21.88756219027106
905,27.292612000000003
906,29.263975813032969
907,6.9314920279669549
908,7.075
909,0.9657219745752902
910,7.075
911,0.24364552641460736
912,31.439204347306658
913,34.52594226666667
914,30.84484220265817
915,34.52594226666667
916,30.84484220265817
917,34.52594226666667
918,30.84484220265817
919,34.52594226666667
920,29.752343867405295
921,2.274794066666667
922,25.369552323119735
923,2.274794066666667
924,25.78757101552142
925,33.08187547441847
926,9.427334886769313
927,0.08466464434665391
646,0.2
648,0.13333333333333334
2,1, 1, 1, 0, 1,45.00,60.00,Tuesday
6,7.2
239,1.0266626435686335
312,34.0480752236263
313,23.024919541266429
349,36.73363394123358
350,20.82020732081331
599,0.0
600,0.0
603,8395.43959370863
604,1164.854591009952
645,0.12183670229707924
647,0.11068065593788217
649,0.4083333333333333
650,0.6416666666666667
662,122.05684978612462
663,0.0
726,145.4635863077431
727,0.0
730,4.781857379944391
731,0.0015545341993572456
734,8.914778289332923
735,0.011791881184889478
737,765.8121505442923
739,484.54022149947658
741,0.0
743,0.0
892,20.703483709486716
893,2.0080649999999999
894,7.199999999999998
895,0.727493412544191
896,7.199999999999998
897,0.9122454957091195
898,23.043571310669934
899,25.5819345
900,20.642660927886668
901,25.5819345
902,20.44913829887173
903,25.5819345
904,20.44913829887173
905,25.5819345
906,26.903795700086794
907,6.732235029132245
908,7.199999999999998
909,1.3479361432276789
910,7.199999999999998
911,1.2104250651519935
912,28.308256127590288
913,30.495831749999998
914,26.533245314739039
915,30.495831749999998
916,26.533245314739039
917,30.495831749999998
918,26.371198979405294
919,30.495831749999998
920,33.55353336243541
921,2.0080649999999999
922,23.90738632593464
923,2.0080649999999999
924,24.330479993899894
925,31.3382406593593
926,10.639573076167848
927,0.9122454957091195
646,0.25
648,0.25
2,1, 1, 1, 0, 1, 0.00,60.00,Tuesday
133,18874.95873709097
134,15157.19669837606
135,3403.215543546702
136,13936.849545599995
137,10219.334400000002
138,3403.215543546702
139,37435.37097901373
173,5.446392425730515
174,17.657535371488416
175,7.489789677558914
176,0.5336348717193804
177,25.229901372875717
178,0.11623921418027468
179,1.0
180,0.0
181,0.0
182,0.0
183,0.0
184,0.0
185,1.0
186,0.0
187,0.0
188,0.0
189,0.0
190,0.0
191,-19.466365128280619
192,18874.95873709097
193,15157.19669837606
194,3403.215543546702
195,13936.849545599995
196,10219.334400000002
197,3403.215543546702
198,37435.37097901373
199,30694.3609264837
200,26546.76908402951
201,5724.113001051321
202,15546.354479999996
203,11399.520000000002
204,5724.113001051321
205,62965.24301156454
209,9.360167997566127
210,22.308191043321324
211,6.710816770081602
212,0.3784872712299326
213,29.725712375500728
214,0.07340730705601761
215,1.0
216,0.0
217,0.0
218,0.0
219,0.0
220,0.0
221,1.0
222,0.0
223,0.0
224,0.0
225,0.0
226,0.0
227,-19.621512728770069
228,30694.3609264837
229,26546.76908402951
230,5724.113001051321
231,15546.354479999996
232,11399.520000000002
233,5724.113001051321
234,62965.24301156454
315,20.0
316,23.0
352,20.0
353,23.0
387,0.0
388,0.0
422,0.0
423,0.0
525,0.0
526,0.0
527,0.75
528,0.0
529,0.0
530,0.0
531,0.75
532,0.0
533,0.0
534,0.0
535,0.0
536,0.0
537,0.0
538,0.0
539,0.0
540,0.0
314,4.0
351,4.0
386,0.0
421,0.0
517,100429.01399057826
518,4025.08498781592
519,104454.09897839418
520,0.0
521,0.0
522,0.075
523,0.020833333333333333
524,0.09583333333333333
541,0.36893634354563478
542,0.4
543,0.5388748970368841
544,0.9654531854863994
545,0.4
546,0.633839835023388
605,1009.4269108165379
606,0.4147608974328917
607,908.4842197348842
608,3633936.8789395366
639,2.3014623000000005
640,2341.9444415834646
641,0.3063414898561053
642,2107.749997425118
643,8430999.98970047
644,6.747568277092987
766,2337.2339209652087
788,10.203078260502329
789,10.137519334887122
790,2668.2764971318056
802,9.933245115146328
803,9.957556905060919
2,1, 1, 1, 0, 2, 0.00,15.00,Tuesday
6,7.2
239,1.2221439044951
312,31.093201349772764
313,25.7462498076068
349,35.019588562708687
350,21.35888309268524
599,0.0
600,0.0
603,6803.580733512497
604,2464.510178927643
645,0.19608912136925794
647,0.09591148471449021
649,0.32666666666666668
650,0.41999999999999995
662,113.69471095173307
663,0.0
726,216.7095170321168
727,0.0
730,7.123403500739117
731,0.002961645307627424
734,5.157534397169759
735,0.006414097972327805
737,372.9299492513757
739,266.25713735974059
741,0.0
743,0.0
892,16.38203396504225
893,2.4798274
894,7.200000000000003
895,1.1943912533024877
896,7.200000000000003
897,1.2643825724930265
898,17.203311510248257
899,19.6394948
900,14.5564527630537
901,19.6394948
902,14.406954929602664
903,19.6394948
904,14.406954929602664
905,19.6394948
906,24.17866006875696
907,6.652121658969708
908,7.200000000000003
909,1.4916629284203933
910,7.200000000000003
911,1.3636622468260123
912,26.914540382820044
913,30.63255273333333
914,24.719297310205325
915,30.63255273333333
916,24.719297310205325
917,30.63255273333333
918,24.244990170100839
919,30.63255273333333
920,31.480815390743517
921,2.4798274
922,18.26133800690501
923,2.4798274
924,18.676627815210695
925,28.56855125402346
926,9.531947174564073
927,1.2643825724930265
646,0.3333333333333333
648,0.13333333333333334
2,1, 1, 1, 0, 2,15.00,30.00,Tuesday
6,7.2
239,1.0357964036636427
312,31.832049288986665
313,26.476666529110707
349,35.993205710161259
350,22.472919385530223
599,0.0
600,0.0
603,0.0
604,0.0
645,0.14036907318015993
647,0.03710818012097557
649,0.4666666666666667
650,0.4083333333333333
662,3.1986008127785614
663,0.0
726,4.172331063293528
727,0.0
730,10.101301979304065
731,0.004911063868007155
734,4.144247776847586
735,0.0058690527422667428
737,0.0
739,0.0
741,0.0
743,0.0
892,19.053675343369215
893,2.6287184166666668
894,7.199999999999998
895,0.6995560869090006
896,7.199999999999998
897,0.3955289606437286
898,22.226207056419683
899,25.31193791666666
900,20.14791078082231
901,25.31193791666666
902,20.14791078082231
903,25.31193791666666
904,20.14791078082231
905,25.31193791666666
906,28.694205824382587
907,6.919741112465579
908,7.199999999999998
909,0.616289660154091
910,7.199999999999998
911,0.24649318056269749
912,31.87618712878086
913,35.43565883333333
914,31.28921123605787
915,35.43565883333333
916,31.28921123605787
917,35.43565883333333
918,31.28921123605787
919,35.43565883333333
920,31.78038037175
921,2.6287184166666668