Program Version,EnergyPlus, Version 8.8.0-Unknown, YMD=2019.07.16 14:15
1,5,Environment Title[],Latitude[deg],Longitude[deg],Time Zone[],Elevation[m]
2,6,Day of Simulation[],Month[],Day of Month[],DST Indicator[1=yes 0=no],Hour[],StartMinute[],EndMinute[],DayType
3,3,Cumulative Day of Simulation[],Month[],Day of Month[],DST Indicator[1=yes 0=no],DayType  ! When Daily Report Variables Requested
4,2,Cumulative Days of Simulation[],Month[]  ! When Monthly Report Variables Requested
5,1,Cumulative Days of Simulation[] ! When Run Period Report Variables Requested
6,1,Environment,Site Outdoor Air Drybulb Temperature [C] !TimeStep
133,1,WESTDATACENTER_EQUIP,ITE CPU Electric Power [W] !Hourly
134,1,WESTDATACENTER_EQUIP,ITE Fan Electric Power [W] !Hourly
135,1,WESTDATACENTER_EQUIP,ITE UPS Electric Power [W] !Hourly
136,1,WESTDATACENTER_EQUIP,ITE CPU Electric Power at Design Inlet Conditions [W] !Hourly
137,1,WESTDATACENTER_EQUIP,ITE Fan Electric Power at Design Inlet Conditions [W] !Hourly
138,1,WESTDATACENTER_EQUIP,ITE UPS Heat Gain to Zone Rate [W] !Hourly
139,1,WESTDATACENTER_EQUIP,ITE Total Heat Gain to Zone Rate [W] !Hourly
173,1,WESTDATACENTER_EQUIP,ITE Standard Density Air Volume Flow Rate [m3/s] !Hourly
174,1,WESTDATACENTER_EQUIP,ITE Air Inlet Dry-Bulb Temperature [C] !Hourly
175,1,WESTDATACENTER_EQUIP,ITE Air Inlet Dewpoint Temperature [C] !Hourly
176,1,WESTDATACENTER_EQUIP,ITE Air Inlet Relative Humidity [%] !Hourly
177,1,WESTDATACENTER_EQUIP,ITE Air Outlet Dry-Bulb Temperature [C] !Hourly
178,1,WESTDATACENTER_EQUIP,ITE Supply Heat Index [] !Hourly
179,1,WESTDATACENTER_EQUIP,ITE Air Inlet Operating Range Exceeded Time [hr] !Hourly
180,1,WESTDATACENTER_EQUIP,ITE Air Inlet Dry-Bulb Temperature Above Operating Range Time [hr] !Hourly
181,1,WESTDATACENTER_EQUIP,ITE Air Inlet Dry-Bulb Temperature Below Operating Range Time [hr] !Hourly
182,1,WESTDATACENTER_EQUIP,ITE Air Inlet Dewpoint Temperature Above Operating Range Time [hr] !Hourly
183,1,WESTDATACENTER_EQUIP,ITE Air Inlet Dewpoint Temperature Below Operating Range Time [hr] !Hourly
184,1,WESTDATACENTER_EQUIP,ITE Air Inlet Relative Humidity Above Operating Range Time [hr] !Hourly
185,1,WESTDATACENTER_EQUIP,ITE Air Inlet Relative Humidity Below Operating Range Time [hr] !Hourly
186,1,WESTDATACENTER_EQUIP,ITE Air Inlet Dry-Bulb Temperature Difference Above Operating Range [deltaC] !Hourly
187,1,WESTDATACENTER_EQUIP,ITE Air Inlet Dry-Bulb Temperature Difference Below Operating Range [deltaC] !Hourly
188,1,WESTDATACENTER_EQUIP,ITE Air Inlet Dewpoint Temperature Difference Above Operating Range [deltaC] !Hourly
189,1,WESTDATACENTER_EQUIP,ITE Air Inlet Dewpoint Temperature Difference Below Operating Range [deltaC] !Hourly
190,1,WESTDATACENTER_EQUIP,ITE Air Inlet Relative Humidity Difference Above Operating Range [%] !Hourly
191,1,WESTDATACENTER_EQUIP,ITE Air Inlet Relative Humidity Difference Below Operating Range [%] !Hourly
192,1,WEST ZONE,Zone ITE CPU Electric Power [W] !Hourly
193,1,WEST ZONE,Zone ITE Fan Electric Power [W] !Hourly
194,1,WEST ZONE,Zone ITE UPS Electric Power [W] !Hourly
195,1,WEST ZONE,Zone ITE CPU Electric Power at Design Inlet Conditions [W] !Hourly
196,1,WEST ZONE,Zone ITE Fan Electric Power at Design Inlet Conditions [W] !Hourly
197,1,WEST ZONE,Zone ITE UPS Heat Gain to Zone Rate [W] !Hourly
198,1,WEST ZONE,Zone ITE Total Heat Gain to Zone Rate [W] !Hourly
199,1,EASTDATACENTER_EQUIP,ITE CPU Electric Power [W] !Hourly
200,1,EASTDATACENTER_EQUIP,ITE Fan Electric Power [W] !Hourly
201,1,EASTDATACENTER_EQUIP,ITE UPS Electric Power [W] !Hourly
202,1,EASTDATACENTER_EQUIP,ITE CPU Electric Power at Design Inlet Conditions [W] !Hourly
203,1,EASTDATACENTER_EQUIP,ITE Fan Electric Power at Design Inlet Conditions [W] !Hourly
204,1,EASTDATACENTER_EQUIP,ITE UPS Heat Gain to Zone Rate [W] !Hourly
205,1,EASTDATACENTER_EQUIP,ITE Total Heat Gain to Zone Rate [W] !Hourly
209,1,EASTDATACENTER_EQUIP,ITE Standard Density Air Volume Flow Rate [m3/s] !Hourly
210,1,EASTDATACENTER_EQUIP,ITE Air Inlet Dry-Bulb Temperature [C] !Hourly
211,1,EASTDATACENTER_EQUIP,ITE Air Inlet Dewpoint Temperature [C] !Hourly
212,1,EASTDATACENTER_EQUIP,ITE Air Inlet Relative Humidity [%] !Hourly
213,1,EASTDATACENTER_EQUIP,ITE Air Outlet Dry-Bulb Temperature [C] !Hourly
214,1,EASTDATACENTER_EQUIP,ITE Supply Heat Index [] !Hourly
215,1,EASTDATACENTER_EQUIP,ITE Air Inlet Operating Range Exceeded Time [hr] !Hourly
216,1,EASTDATACENTER_EQUIP,ITE Air Inlet Dry-Bulb Temperature Above Operating Range Time [hr] !Hourly
217,1,EASTDATACENTER_EQUIP,ITE Air Inlet Dry-Bulb Temperature Below Operating Range Time [hr] !Hourly
218,1,EASTDATACENTER_EQUIP,ITE Air Inlet Dewpoint Temperature Above Operating Range Time [hr] !Hourly
219,1,EASTDATACENTER_EQUIP,ITE Air Inlet Dewpoint Temperature Below Operating Range Time [hr] !Hourly
220,1,EASTDATACENTER_EQUIP,ITE Air Inlet Relative Humidity Above Operating Range Time [hr] !Hourly
221,1,EASTDATACENTER_EQUIP,ITE Air Inlet Relative Humidity Below Operating Range Time [hr] !Hourly
222,1,EASTDATACENTER_EQUIP,ITE Air Inlet Dry-Bulb Temperature Difference Above Operating Range [deltaC] !Hourly
223,1,EASTDATACENTER_EQUIP,ITE Air Inlet Dry-Bulb Temperature Difference Below Operating Range [deltaC] !Hourly
224,1,EASTDATACENTER_EQUIP,ITE Air Inlet Dewpoint Temperature Difference Above Operating Range [deltaC] !Hourly
225,1,EASTDATACENTER_EQUIP,ITE Air Inlet Dewpoint Temperature Difference Below Operating Range [deltaC] !Hourly
226,1,EASTDATACENTER_EQUIP,ITE Air Inlet Relative Humidity Difference Above Operating Range [%] !Hourly
227,1,EASTDATACENTER_EQUIP,ITE Air Inlet Relative Humidity Difference Below Operating Range [%] !Hourly
228,1,EAST ZONE,Zone ITE CPU Electric Power [W] !Hourly
229,1,EAST ZONE,Zone ITE Fan Electric Power [W] !Hourly
230,1,EAST ZONE,Zone ITE UPS Electric Power [W] !Hourly
231,1,EAST ZONE,Zone ITE CPU Electric Power at Design Inlet Conditions [W] !Hourly
232,1,EAST ZONE,Zone ITE Fan Electric Power at Design Inlet Conditions [W] !Hourly
233,1,EAST ZONE,Zone ITE UPS Heat Gain to Zone Rate [W] !Hourly
234,1,EAST ZONE,Zone ITE Total Heat Gain to Zone Rate [W] !Hourly
239,1,EMS,Power Utilization Effectiveness [] !TimeStep
312,1,WEST ZONE,Zone Air Temperature [C] !TimeStep
313,1,WEST ZONE,Zone Air Relative Humidity [%] !TimeStep
314,1,WEST ZONE,Zone Thermostat Control Type [] !Hourly
315,1,WEST ZONE,Zone Thermostat Heating Setpoint Temperature [C] !Hourly
316,1,WEST ZONE,Zone Thermostat Cooling Setpoint Temperature [C] !Hourly
349,1,EAST ZONE,Zone Air Temperature [C] !TimeStep
350,1,EAST ZONE,Zone Air Relative Humidity [%] !TimeStep
351,1,EAST ZONE,Zone Thermostat Control Type [] !Hourly
352,1,EAST ZONE,Zone Thermostat Heating Setpoint Temperature [C] !Hourly
353,1,EAST ZONE,Zone Thermostat Cooling Setpoint Temperature [C] !Hourly
386,1,WEST PLENUM,Zone Thermostat Control Type [] !Hourly
387,1,WEST PLENUM,Zone Thermostat Heating Setpoint Temperature [C] !Hourly
388,1,WEST PLENUM,Zone Thermostat Cooling Setpoint Temperature [C] !Hourly
421,1,EAST PLENUM,Zone Thermostat Control Type [] !Hourly
422,1,EAST PLENUM,Zone Thermostat Heating Setpoint Temperature [C] !Hourly
423,1,EAST PLENUM,Zone Thermostat Cooling Setpoint Temperature [C] !Hourly
517,1,Whole Building,Facility Total Building Electric Demand Power [W] !Hourly
518,1,Whole Building,Facility Total HVAC Electric Demand Power [W] !Hourly
519,1,Whole Building,Facility Total Electric Demand Power [W] !Hourly
520,1,WEST ZONE,Zone Oscillating Temperatures Time [hr] !Hourly
521,1,EAST ZONE,Zone Oscillating Temperatures Time [hr] !Hourly
522,1,WEST PLENUM,Zone Oscillating Temperatures Time [hr] !Hourly
523,1,EAST PLENUM,Zone Oscillating Temperatures Time [hr] !Hourly
524,1,Facility,Facility Any Zone Oscillating Temperatures Time [hr] !Hourly
525,1,WEST ZONE,Zone Heating Setpoint Not Met Time [hr] !Hourly
526,1,WEST ZONE,Zone Heating Setpoint Not Met While Occupied Time [hr] !Hourly
527,1,WEST ZONE,Zone Cooling Setpoint Not Met Time [hr] !Hourly
528,1,WEST ZONE,Zone Cooling Setpoint Not Met While Occupied Time [hr] !Hourly
529,1,EAST ZONE,Zone Heating Setpoint Not Met Time [hr] !Hourly
530,1,EAST ZONE,Zone Heating Setpoint Not Met While Occupied Time [hr] !Hourly
531,1,EAST ZONE,Zone Cooling Setpoint Not Met Time [hr] !Hourly
532,1,EAST ZONE,Zone Cooling Setpoint Not Met While Occupied Time [hr] !Hourly
533,1,WEST PLENUM,Zone Heating Setpoint Not Met Time [hr] !Hourly
534,1,WEST PLENUM,Zone Heating Setpoint Not Met While Occupied Time [hr] !Hourly
535,1,WEST PLENUM,Zone Cooling Setpoint Not Met Time [hr] !Hourly
536,1,WEST PLENUM,Zone Cooling Setpoint Not Met While Occupied Time [hr] !Hourly
537,1,EAST PLENUM,Zone Heating Setpoint Not Met Time [hr] !Hourly
538,1,EAST PLENUM,Zone Heating Setpoint Not Met While Occupied Time [hr] !Hourly
539,1,EAST PLENUM,Zone Cooling Setpoint Not Met Time [hr] !Hourly
540,1,EAST PLENUM,Zone Cooling Setpoint Not Met While Occupied Time [hr] !Hourly
541,1,WEST ZONE VAV SYSTEM,Zone Air Terminal VAV Damper Position [] !Hourly
542,1,WEST ZONE VAV SYSTEM,Zone Air Terminal Minimum Air Flow Fraction [] !Hourly
543,1,WEST ZONE VAV SYSTEM,Zone Air Terminal Outdoor Air Volume Flow Rate [m3/s] !Hourly
544,1,EAST ZONE VAV SYSTEM,Zone Air Terminal VAV Damper Position [] !Hourly
545,1,EAST ZONE VAV SYSTEM,Zone Air Terminal Minimum Air Flow Fraction [] !Hourly
546,1,EAST ZONE VAV SYSTEM,Zone Air Terminal Outdoor Air Volume Flow Rate [m3/s] !Hourly
599,1,WEST ZONE CW COOLING COIL,Cooling Coil Total Cooling Rate [W] !TimeStep
600,1,WEST ZONE CW COOLING COIL,Cooling Coil Sensible Cooling Rate [W] !TimeStep
603,1,EAST ZONE CW COOLING COIL,Cooling Coil Total Cooling Rate [W] !TimeStep
604,1,EAST ZONE CW COOLING COIL,Cooling Coil Sensible Cooling Rate [W] !TimeStep
605,1,WEST ZONE SUPPLY FAN,Fan Electric Power [W] !Hourly
606,1,WEST ZONE SUPPLY FAN,Fan Rise in Air Temperature [deltaC] !Hourly
607,1,WEST ZONE SUPPLY FAN,Fan Heat Gain to Air [W] !Hourly
608,1,WEST ZONE SUPPLY FAN,Fan Electric Energy [J] !Hourly
639,1,WEST ZONE SUPPLY FAN,Fan Air Mass Flow Rate [kg/s] !Hourly
640,1,EAST ZONE SUPPLY FAN,Fan Electric Power [W] !Hourly
641,1,EAST ZONE SUPPLY FAN,Fan Rise in Air Temperature [deltaC] !Hourly
642,1,EAST ZONE SUPPLY FAN,Fan Heat Gain to Air [W] !Hourly
643,1,EAST ZONE SUPPLY FAN,Fan Electric Energy [J] !Hourly
644,1,EAST ZONE SUPPLY FAN,Fan Air Mass Flow Rate [kg/s] !Hourly
645,1,WEST DATA CENTER IEC,Evaporative Cooler Total Stage Effectiveness [] !TimeStep
646,1,WEST DATA CENTER IEC,Evaporative Cooler Operating Mode Status [] !TimeStep
647,1,EAST DATA CENTER IEC,Evaporative Cooler Total Stage Effectiveness [] !TimeStep
648,1,EAST DATA CENTER IEC,Evaporative Cooler Operating Mode Status [] !TimeStep
649,1,WEST DATA CENTER DEC,Evaporative Cooler Stage Effectiveness [] !TimeStep
650,1,EAST DATA CENTER DEC,Evaporative Cooler Stage Effectiveness [] !TimeStep
662,1,WEST DATA CENTER IEC,Evaporative Cooler Electric Power [W] !TimeStep
663,1,WEST DATA CENTER IEC,Evaporative Cooler Water Volume [m3] !TimeStep
726,1,EAST DATA CENTER IEC,Evaporative Cooler Electric Power [W] !TimeStep
727,1,EAST DATA CENTER IEC,Evaporative Cooler Water Volume [m3] !TimeStep
730,1,WEST DATA CENTER DEC,Evaporative Cooler Electric Power [W] !TimeStep
731,1,WEST DATA CENTER DEC,Evaporative Cooler Water Volume [m3] !TimeStep
734,1,EAST DATA CENTER DEC,Evaporative Cooler Electric Power [W] !TimeStep
735,1,EAST DATA CENTER DEC,Evaporative Cooler Water Volume [m3] !TimeStep
737,1,WEST DX COOLING COIL,Cooling Coil Total Cooling Rate [W] !TimeStep
739,1,WEST DX COOLING COIL,Cooling Coil Sensible Cooling Rate [W] !TimeStep
741,1,EAST DX COOLING COIL,Cooling Coil Total Cooling Rate [W] !TimeStep
743,1,EAST DX COOLING COIL,Cooling Coil Sensible Cooling Rate [W] !TimeStep
766,1,CHILLER,Chiller Evaporator Cooling Rate [W] !Hourly
788,1,CHILLER,Chiller Evaporator Inlet Temperature [C] !Hourly
789,1,CHILLER,Chiller Evaporator Outlet Temperature [C] !Hourly
790,1,CHILLER,Chiller Condenser Heat Transfer Rate [W] !Hourly
802,1,CHILLER,Chiller Condenser Inlet Temperature [C] !Hourly
803,1,CHILLER,Chiller Condenser Outlet Temperature [C] !Hourly
892,1,WEST ZONE INLET NODE,System Node Temperature [C] !TimeStep
893,1,WEST ZONE INLET NODE,System Node Mass Flow Rate [kg/s] !TimeStep
894,1,WEST OUTSIDE AIR INLET NODE,System Node Temperature [C] !TimeStep
895,1,WEST OUTSIDE AIR INLET NODE,System Node Mass Flow Rate [kg/s] !TimeStep
896,1,WEST IEC SECONDARY AIR INLET NODE,System Node Temperature [C] !TimeStep
897,1,WEST IEC SECONDARY AIR INLET NODE,System Node Mass Flow Rate [kg/s] !TimeStep
898,1,WEST ZONE DEC OUTLET NODE,System Node Temperature [C] !TimeStep
899,1,WEST ZONE DEC OUTLET NODE,System Node Setpoint Temperature [C] !TimeStep
900,1,WEST ZONE IEC OUTLET NODE,System Node Temperature [C] !TimeStep
901,1,WEST ZONE IEC OUTLET NODE,System Node Setpoint Temperature [C] !TimeStep
902,1,WEST ZONE CCOIL AIR OUTLET NODE,System Node Temperature [C] !TimeStep
903,1,WEST ZONE CCOIL AIR OUTLET NODE,System Node Setpoint Temperature [C] !TimeStep
904,1,WEST AIR LOOP OUTLET NODE,System Node Temperature [C] !TimeStep
905,1,WEST AIR LOOP OUTLET NODE,System Node Setpoint Temperature [C] !TimeStep
906,1,EAST ZONE INLET NODE,System Node Temperature [C] !TimeStep
907,1,EAST ZONE INLET NODE,System Node Mass Flow Rate [kg/s] !TimeStep
908,1,EAST OUTSIDE AIR INLET NODE,System Node Temperature [C] !TimeStep
909,1,EAST OUTSIDE AIR INLET NODE,System Node Mass Flow Rate [kg/s] !TimeStep
910,1,EAST IEC SECONDARY AIR INLET NODE,System Node Temperature [C] !TimeStep
911,1,EAST IEC SECONDARY AIR INLET NODE,System Node Mass Flow Rate [kg/s] !TimeStep
912,1,EAST ZONE DEC OUTLET NODE,System Node Temperature [C] !TimeStep
913,1,EAST ZONE DEC OUTLET NODE,System Node Setpoint Temperature [C] !TimeStep
914,1,EAST ZONE IEC OUTLET NODE,System Node Temperature [C] !TimeStep
915,1,EAST ZONE IEC OUTLET NODE,System Node Setpoint Temperature [C] !TimeStep
916,1,EAST ZONE CCOIL AIR OUTLET NODE,System Node Temperature [C] !TimeStep
917,1,EAST ZONE CCOIL AIR OUTLET NODE,System Node Setpoint Temperature [C] !TimeStep
918,1,EAST AIR LOOP OUTLET NODE,System Node Temperature [C] !TimeStep
919,1,EAST AIR LOOP OUTLET NODE,System Node Setpoint Temperature [C] !TimeStep
920,1,WEST ZONE RETURN AIR NODE,System Node Temperature [C] !TimeStep
921,1,WEST ZONE RETURN AIR NODE,System Node Mass Flow Rate [kg/s] !TimeStep
922,1,WEST ZONE MIXED AIR NODE,System Node Temperature [C] !TimeStep
923,1,WEST ZONE MIXED AIR NODE,System Node Mass Flow Rate [kg/s] !TimeStep
924,1,WEST ZONE SUPPLY FAN OUTLET NODE,System Node Temperature [C] !TimeStep
925,1,EAST ZONE SUPPLY FAN OUTLET NODE,System Node Temperature [C] !TimeStep
926,1,WEST IEC SECONDARY AIR OUTLET NODE,System Node Temperature [C] !TimeStep
927,1,WEST IEC SECONDARY AIR OUTLET NODE,System Node Mass Flow Rate [kg/s] !TimeStep
End of Data Dictionary
1,WHOLEYEARDAY,  37.62,-122.40,  -8.00,   2.00
2,1, 1, 1, 0, 1, 0.00,15.00,Tuesday
6,6.825
239,1.030029886631446
312,20.986922215561543
313,35.98074138818472
349,21.42650422603762
350,35.20518163150869
599,0.0
600,0.0
603,0.0
604,0.0
645,0.05551214787805406
647,0.07384856513738208
649,0.5499999999999998
650,0.5999999999999999
662,14.486464003399666
663,0.0
726,12.077119649370669
727,0.0
730,6.7696496876822069
731,0.003607113440493084
734,4.285714285714285
735,0.0026518463032113896
737,0.0
739,0.0
741,0.0
743,0.0
892,16.24149424300739
893,4.160421191797693
894,6.824999999999999
895,0.8234594820412313
896,6.824999999999999
897,0.31716253448049688
898,17.05877679171783
899,21.060774642857138
900,16.598651336302014
901,21.060774642857138
902,16.598651336302014
903,21.060774642857138
904,16.598651336302014
905,21.060774642857138
906,17.45791401264039
907,5.197356295702483
908,6.824999999999999
909,0.5155292951601905
910,6.824999999999999
911,0.46359174455917287
912,19.17801789476175
913,34.8329545
914,18.538805989845586
915,34.8329545
916,18.538805989845586
917,34.8329545
918,18.538805989845586
919,34.8329545
920,21.014828442828468
921,4.160421191797693
922,18.18816454806916
923,4.160421191797693
924,18.523479426729208
925,20.12065214240674
926,7.958380290555026
927,0.31716253448049688
646,0.14285714285714286
648,0.14285714285714286
2,1, 1, 1, 0, 1,15.00,30.00,Tuesday
6,6.95
239,1.0504872981017944
312,22.572416737063976
313,36.57841106135032
349,31.67296198200999
350,20.409452768807815
599,0.0
600,0.0
603,0.0
604,0.0
645,0.17873099726254314
647,0.0
649,0.3733333333333333
650,0.6999999999999997
662,69.0913556551057
663,0.0
726,0.0
727,0.0
730,8.000000000000004
731,0.004882370317359022
734,1.6425786133740999
735,0.00290122296990933
737,0.0
739,0.0
741,0.0
743,0.0
892,13.23089482981881
893,4.104615224689026
894,6.949999999999998
895,1.5375164313564629
896,6.949999999999998
897,1.3239470042364175
898,15.134920550981576
899,21.06436786666667
900,13.807004224968044
901,21.06436786666667
902,13.807004224968044
903,21.06436786666667
904,13.807004224968044
905,21.06436786666667
906,27.24421133848292
907,5.084401675988985
908,6.949999999999998
909,0.0
910,6.949999999999998
911,0.0
912,30.097990557086609
913,38.495969066666678
914,30.097990557086609
915,38.495969066666678
916,30.097990557086609
917,38.495969066666678
918,30.097990557086609
919,38.495969066666678
920,22.301885566586095
921,4.104615224689026
922,16.223048076171297
923,4.104615224689026
924,16.579016152890376
925,30.847689890438305
926,9.229038362823621
927,1.3239470042364175
646,0.4000000000000001
648,0.0
2,1, 1, 1, 0, 1,30.00,45.00,Tuesday
6,7.075
239,1.032555562975847
312,26.56718905847809
313,30.82131739823033
349,44.43670229042903
350,11.651174520444423
599,0.0
600,0.0
603,25.34859186861882
604,25.348591868618393
645,0.0
647,0.02053262162192367
649,0.6533333333333331
650,0.5133333333333332
662,0.0
663,0.0
726,0.28060026113567429
727,0.0
730,3.3671002512178647
731,0.0013674013486006853
734,3.4603722278082098
735,0.0033461620735883207
737,0.0
739,0.0
741,0.0
743,0.0
892,21.753323529384866
893,3.907963245677846
894,7.075
895,0.6358436457682448
896,7.075
897,0.0
898,23.363973295286319
899,31.848232000000004
900,23.363973295286319
901,31.848232000000004
902,23.363973295286319
903,31.848232000000004
904,23.363973295286319
905,31.848232000000004
906,30.282974481947144
907,4.371846040325073
908,7.075
909,1.0481207537508897
910,7.075
911,0.0704926099892425
912,34.47160910918989
913,36.762541066666667
914,33.83270156623216
915,36.762541066666667
916,33.83270156623216
917,36.762541066666667
918,33.82494220328052
919,36.762541066666667
920,26.11629941105663
921,3.907963245677846
922,23.848919227206467
923,3.907963245677846
924,24.195272889648409
925,35.929427590859969
926,7.075
927,0.0
646,0.0
648,0.13333333333333334
2,1, 1, 1, 0, 1,45.00,60.00,Tuesday
6,7.2
239,1.054736765790742
312,31.775524397337855
313,24.646944521175514
349,45.11763712235117
350,11.328487663375395
599,0.0
600,0.0
603,37.492589571426247
604,37.49258957142134
645,0.16715478350908725
647,0.05675520850696348
649,0.5133333333333332
650,0.09333333333333333
662,26.147209631846736
663,0.0
726,4.80388058934405
727,0.0
730,12.0
731,0.004867748685053165
734,0.0
735,0.0
737,0.0
739,0.0
741,0.0
743,0.0
892,19.512672062553226
893,4.282597958022359
894,7.200000000000003
895,1.8056858905059877
896,7.200000000000003
897,0.8008983787443127
898,19.02906917208655
899,21.511160800000007
900,17.510329237170205
901,21.511160800000007
902,17.510329237170205
903,21.511160800000007
904,17.510329237170205
905,21.511160800000007
906,32.97888586305131
907,5.226748542655651
908,7.200000000000003
909,1.0728853046393883
910,7.200000000000003
911,0.2612153532356549
912,38.14130389936349
913,38.13969753333333
914,36.27998980561313
915,38.13969753333333
916,36.27998980561313
917,38.13969753333333
918,36.27073189496718
919,38.13969753333333
920,31.72757437383624
921,4.282597958022359
922,21.15935683240554
923,4.28259795802236
924,21.490547978146048
925,38.14130389936349
926,12.079653885151691
927,0.8008983787443127
646,0.4666666666666666
648,0.13333333333333334
2,1, 1, 1, 0, 1, 0.00,60.00,Tuesday
133,20448.308902454188
134,16730.46820016419
135,3717.877710261837
136,13936.849545599995
137,10219.334400000002
138,3717.877710261837
139,40896.65481288021
173,5.991855672590818
174,18.5042630468089
175,6.588562780668456
176,0.46497403215637597
177,26.009725110141618
178,0.08553543459835171
179,1.0
180,0.0
181,0.0
182,0.0
183,0.0
184,0.0
185,1.0
186,0.0
187,0.0
188,0.0
189,0.0
190,0.0
191,-19.535025967843624
192,20448.308902454188
193,16730.46820016419
194,3717.877710261837
195,13936.849545599995
196,10219.334400000002
197,3717.877710261837
198,40896.65481288021
199,35315.952259237514
200,31168.129348770093
201,6648.40816080076
202,15546.354479999996
203,11399.520000000002
204,6648.40816080076
205,73132.48976880838
209,10.87757188375297
210,24.53788856181975
211,5.822716284653467
212,0.32858083457433276
213,31.96105519000723
214,0.09948711812632109
215,1.0
216,0.0
217,0.0
218,0.0
219,0.0
220,0.0
221,1.0
222,0.0
223,0.0
224,0.0
225,0.0
226,0.0
227,-19.671419165425669
228,35315.952259237514
229,31168.129348770093
230,6648.40816080076
231,15546.354479999996
232,11399.520000000002
233,6648.40816080076
234,73132.48976880838
315,20.0
316,23.0
352,20.0
353,23.0
387,0.0
388,0.0
422,0.0
423,0.0
525,0.0
526,0.0
527,0.5
528,0.0
529,0.0
530,0.0
531,0.75
532,0.0
533,0.0
534,0.0
535,0.0
536,0.0
537,0.0
538,0.0
539,0.0
540,0.0
314,4.0
351,4.0
386,0.0
421,0.0
517,114057.54458168862
518,3860.319078229827
519,117917.86365991843
520,0.0
521,0.08333333333333334
522,0.05
523,0.017857142857142857
524,0.1511904761904762
541,0.659479411942791
542,0.4
543,0.9971787690812495
544,0.7111283989396687
545,0.4
546,0.5474428100174783
605,1477.1509240951827
606,0.3422069408903964
607,1329.4358316856647
608,5317743.3267426569
639,4.113899405046731
640,1731.7037458839159
641,0.3235773262747785
642,1558.5333712955244
643,6234133.485182096
644,4.970088138668048
766,3.0990687383375539
788,10.20564918440204
789,9.831388119067706
790,3.547873747040279
802,9.936961481297282
803,9.936993807237763
2,1, 1, 1, 0, 2, 0.00,15.00,Tuesday
6,7.2
239,1.0622614397390376
312,24.106669460223963
313,38.10356971911669
349,44.213288644646869
350,11.983348875849238
599,0.0
600,0.0
603,0.0
604,0.0
645,0.20549207246616645
647,0.07709694266375211
649,0.3733333333333333
650,0.41999999999999995
662,220.35317112032113
663,0.0
726,6.177530930420426
727,0.0
730,6.358964936136491
731,0.0037614790084801866
734,2.2624410191223647
735,0.0027011922050470006
737,4115.681647843482
739,1817.8254780049697
741,0.0
743,0.0
892,14.54838086278769
893,3.6572389790111794
894,7.200000000000003
895,1.1664834404284519
896,7.200000000000003
897,1.8995566443761914
898,17.578709902228697
899,22.3846058
900,14.953895259423899
901,22.3846058
902,14.662571473369408
903,22.3846058
904,14.662571473369408
905,22.3846058
906,30.740080990346557
907,5.409381675988985
908,7.200000000000003
909,1.2486274846284605
910,7.200000000000003
911,0.48182474500955776
912,34.832996583673978
913,35.7847058
914,32.351511923272358
915,35.7847058
916,32.351511923272358
917,35.7847058
918,32.351511923272358
919,35.7847058
920,24.705075042700757
921,3.6572389790111794
922,18.535699252723679
923,3.6572389790111794
924,18.89207214360344
925,35.78586503724958
926,9.897316473357652
927,1.8995566443761914
646,0.39999999999999999
648,0.26666666666666669
2,1, 1, 1, 0, 2,15.00,30.00,Tuesday
6,7.2
239,1.0289952733825663
312,23.974496364902909
313,39.482534310869009
349,43.17017717079719
350,13.463519298792854
599,0.0
600,0.0
603,20.496940692936716
604,20.496940692939576
645,0.07807285673874132
647,0.0640193991521108
649,0.5384615384615381
650,0.3769230769230767
662,2.0960540141022876
663,0.0
726,12.16337892267287
727,0.0
730,10.94745022812944
731,0.0036369089862558665
734,3.849646681326789
735,0.0037383140350240289
737,0.0
739,0.0
741,0.0
743,0.0
892,17.4351682493164
893,3.4738548988590516
894,7.199999999999997
895,0.7367320240165505
896,7.199999999999997
897,0.24411357671781937
898,17.4927983351252
899,23.766898230769216
900,16.888557009691256
901,23.766898230769216
902,16.888557009691256
903,23.766898230769216
904,16.888557009691256
905,23.766898230769216
906,29.223153145009595
907,4.673099508067389
908,7.199999999999997
909,1.1127458586320705
910,7.199999999999997
911,0.3951241509736011
912,33.61417955732743
913,35.02785069230767
914,31.740659365801183
915,35.02785069230767
916,31.740659365801183
917,35.02785069230767
918,31.73777927089308
919,35.02785069230767
920,23.857334309291315
921,3.4738548988590516
922,19.086940250279125
923,3.4738548988590516
924,19.428714179728666