Program Version,EnergyPlus, Version 8.8.0-Unknown, YMD=2019.07.12 13:59
1,5,Environment Title[],Latitude[deg],Longitude[deg],Time Zone[],Elevation[m]
2,6,Day of Simulation[],Month[],Day of Month[],DST Indicator[1=yes 0=no],Hour[],StartMinute[],EndMinute[],DayType
3,3,Cumulative Day of Simulation[],Month[],Day of Month[],DST Indicator[1=yes 0=no],DayType  ! When Daily Report Variables Requested
4,2,Cumulative Days of Simulation[],Month[]  ! When Monthly Report Variables Requested
5,1,Cumulative Days of Simulation[] ! When Run Period Report Variables Requested
6,1,Environment,Site Outdoor Air Drybulb Temperature [C] !TimeStep
133,1,WESTDATACENTER_EQUIP,ITE CPU Electric Power [W] !Hourly
134,1,WESTDATACENTER_EQUIP,ITE Fan Electric Power [W] !Hourly
135,1,WESTDATACENTER_EQUIP,ITE UPS Electric Power [W] !Hourly
136,1,WESTDATACENTER_EQUIP,ITE CPU Electric Power at Design Inlet Conditions [W] !Hourly
137,1,WESTDATACENTER_EQUIP,ITE Fan Electric Power at Design Inlet Conditions [W] !Hourly
138,1,WESTDATACENTER_EQUIP,ITE UPS Heat Gain to Zone Rate [W] !Hourly
139,1,WESTDATACENTER_EQUIP,ITE Total Heat Gain to Zone Rate [W] !Hourly
173,1,WESTDATACENTER_EQUIP,ITE Standard Density Air Volume Flow Rate [m3/s] !Hourly
174,1,WESTDATACENTER_EQUIP,ITE Air Inlet Dry-Bulb Temperature [C] !Hourly
175,1,WESTDATACENTER_EQUIP,ITE Air Inlet Dewpoint Temperature [C] !Hourly
176,1,WESTDATACENTER_EQUIP,ITE Air Inlet Relative Humidity [%] !Hourly
177,1,WESTDATACENTER_EQUIP,ITE Air Outlet Dry-Bulb Temperature [C] !Hourly
178,1,WESTDATACENTER_EQUIP,ITE Supply Heat Index [] !Hourly
179,1,WESTDATACENTER_EQUIP,ITE Air Inlet Operating Range Exceeded Time [hr] !Hourly
180,1,WESTDATACENTER_EQUIP,ITE Air Inlet Dry-Bulb Temperature Above Operating Range Time [hr] !Hourly
181,1,WESTDATACENTER_EQUIP,ITE Air Inlet Dry-Bulb Temperature Below Operating Range Time [hr] !Hourly
182,1,WESTDATACENTER_EQUIP,ITE Air Inlet Dewpoint Temperature Above Operating Range Time [hr] !Hourly
183,1,WESTDATACENTER_EQUIP,ITE Air Inlet Dewpoint Temperature Below Operating Range Time [hr] !Hourly
184,1,WESTDATACENTER_EQUIP,ITE Air Inlet Relative Humidity Above Operating Range Time [hr] !Hourly
185,1,WESTDATACENTER_EQUIP,ITE Air Inlet Relative Humidity Below Operating Range Time [hr] !Hourly
186,1,WESTDATACENTER_EQUIP,ITE Air Inlet Dry-Bulb Temperature Difference Above Operating Range [deltaC] !Hourly
187,1,WESTDATACENTER_EQUIP,ITE Air Inlet Dry-Bulb Temperature Difference Below Operating Range [deltaC] !Hourly
188,1,WESTDATACENTER_EQUIP,ITE Air Inlet Dewpoint Temperature Difference Above Operating Range [deltaC] !Hourly
189,1,WESTDATACENTER_EQUIP,ITE Air Inlet Dewpoint Temperature Difference Below Operating Range [deltaC] !Hourly
190,1,WESTDATACENTER_EQUIP,ITE Air Inlet Relative Humidity Difference Above Operating Range [%] !Hourly
191,1,WESTDATACENTER_EQUIP,ITE Air Inlet Relative Humidity Difference Below Operating Range [%] !Hourly
192,1,WEST ZONE,Zone ITE CPU Electric Power [W] !Hourly
193,1,WEST ZONE,Zone ITE Fan Electric Power [W] !Hourly
194,1,WEST ZONE,Zone ITE UPS Electric Power [W] !Hourly
195,1,WEST ZONE,Zone ITE CPU Electric Power at Design Inlet Conditions [W] !Hourly
196,1,WEST ZONE,Zone ITE Fan Electric Power at Design Inlet Conditions [W] !Hourly
197,1,WEST ZONE,Zone ITE UPS Heat Gain to Zone Rate [W] !Hourly
198,1,WEST ZONE,Zone ITE Total Heat Gain to Zone Rate [W] !Hourly
199,1,EASTDATACENTER_EQUIP,ITE CPU Electric Power [W] !Hourly
200,1,EASTDATACENTER_EQUIP,ITE Fan Electric Power [W] !Hourly
201,1,EASTDATACENTER_EQUIP,ITE UPS Electric Power [W] !Hourly
202,1,EASTDATACENTER_EQUIP,ITE CPU Electric Power at Design Inlet Conditions [W] !Hourly
203,1,EASTDATACENTER_EQUIP,ITE Fan Electric Power at Design Inlet Conditions [W] !Hourly
204,1,EASTDATACENTER_EQUIP,ITE UPS Heat Gain to Zone Rate [W] !Hourly
205,1,EASTDATACENTER_EQUIP,ITE Total Heat Gain to Zone Rate [W] !Hourly
209,1,EASTDATACENTER_EQUIP,ITE Standard Density Air Volume Flow Rate [m3/s] !Hourly
210,1,EASTDATACENTER_EQUIP,ITE Air Inlet Dry-Bulb Temperature [C] !Hourly
211,1,EASTDATACENTER_EQUIP,ITE Air Inlet Dewpoint Temperature [C] !Hourly
212,1,EASTDATACENTER_EQUIP,ITE Air Inlet Relative Humidity [%] !Hourly
213,1,EASTDATACENTER_EQUIP,ITE Air Outlet Dry-Bulb Temperature [C] !Hourly
214,1,EASTDATACENTER_EQUIP,ITE Supply Heat Index [] !Hourly
215,1,EASTDATACENTER_EQUIP,ITE Air Inlet Operating Range Exceeded Time [hr] !Hourly
216,1,EASTDATACENTER_EQUIP,ITE Air Inlet Dry-Bulb Temperature Above Operating Range Time [hr] !Hourly
217,1,EASTDATACENTER_EQUIP,ITE Air Inlet Dry-Bulb Temperature Below Operating Range Time [hr] !Hourly
218,1,EASTDATACENTER_EQUIP,ITE Air Inlet Dewpoint Temperature Above Operating Range Time [hr] !Hourly
219,1,EASTDATACENTER_EQUIP,ITE Air Inlet Dewpoint Temperature Below Operating Range Time [hr] !Hourly
220,1,EASTDATACENTER_EQUIP,ITE Air Inlet Relative Humidity Above Operating Range Time [hr] !Hourly
221,1,EASTDATACENTER_EQUIP,ITE Air Inlet Relative Humidity Below Operating Range Time [hr] !Hourly
222,1,EASTDATACENTER_EQUIP,ITE Air Inlet Dry-Bulb Temperature Difference Above Operating Range [deltaC] !Hourly
223,1,EASTDATACENTER_EQUIP,ITE Air Inlet Dry-Bulb Temperature Difference Below Operating Range [deltaC] !Hourly
224,1,EASTDATACENTER_EQUIP,ITE Air Inlet Dewpoint Temperature Difference Above Operating Range [deltaC] !Hourly
225,1,EASTDATACENTER_EQUIP,ITE Air Inlet Dewpoint Temperature Difference Below Operating Range [deltaC] !Hourly
226,1,EASTDATACENTER_EQUIP,ITE Air Inlet Relative Humidity Difference Above Operating Range [%] !Hourly
227,1,EASTDATACENTER_EQUIP,ITE Air Inlet Relative Humidity Difference Below Operating Range [%] !Hourly
228,1,EAST ZONE,Zone ITE CPU Electric Power [W] !Hourly
229,1,EAST ZONE,Zone ITE Fan Electric Power [W] !Hourly
230,1,EAST ZONE,Zone ITE UPS Electric Power [W] !Hourly
231,1,EAST ZONE,Zone ITE CPU Electric Power at Design Inlet Conditions [W] !Hourly
232,1,EAST ZONE,Zone ITE Fan Electric Power at Design Inlet Conditions [W] !Hourly
233,1,EAST ZONE,Zone ITE UPS Heat Gain to Zone Rate [W] !Hourly
234,1,EAST ZONE,Zone ITE Total Heat Gain to Zone Rate [W] !Hourly
239,1,EMS,Power Utilization Effectiveness [] !TimeStep
312,1,WEST ZONE,Zone Air Temperature [C] !TimeStep
313,1,WEST ZONE,Zone Air Relative Humidity [%] !TimeStep
314,1,WEST ZONE,Zone Thermostat Control Type [] !Hourly
315,1,WEST ZONE,Zone Thermostat Heating Setpoint Temperature [C] !Hourly
316,1,WEST ZONE,Zone Thermostat Cooling Setpoint Temperature [C] !Hourly
349,1,EAST ZONE,Zone Air Temperature [C] !TimeStep
350,1,EAST ZONE,Zone Air Relative Humidity [%] !TimeStep
351,1,EAST ZONE,Zone Thermostat Control Type [] !Hourly
352,1,EAST ZONE,Zone Thermostat Heating Setpoint Temperature [C] !Hourly
353,1,EAST ZONE,Zone Thermostat Cooling Setpoint Temperature [C] !Hourly
386,1,WEST PLENUM,Zone Thermostat Control Type [] !Hourly
387,1,WEST PLENUM,Zone Thermostat Heating Setpoint Temperature [C] !Hourly
388,1,WEST PLENUM,Zone Thermostat Cooling Setpoint Temperature [C] !Hourly
421,1,EAST PLENUM,Zone Thermostat Control Type [] !Hourly
422,1,EAST PLENUM,Zone Thermostat Heating Setpoint Temperature [C] !Hourly
423,1,EAST PLENUM,Zone Thermostat Cooling Setpoint Temperature [C] !Hourly
517,1,Whole Building,Facility Total Building Electric Demand Power [W] !Hourly
518,1,Whole Building,Facility Total HVAC Electric Demand Power [W] !Hourly
519,1,Whole Building,Facility Total Electric Demand Power [W] !Hourly
520,1,WEST ZONE,Zone Oscillating Temperatures Time [hr] !Hourly
521,1,EAST ZONE,Zone Oscillating Temperatures Time [hr] !Hourly
522,1,WEST PLENUM,Zone Oscillating Temperatures Time [hr] !Hourly
523,1,EAST PLENUM,Zone Oscillating Temperatures Time [hr] !Hourly
524,1,Facility,Facility Any Zone Oscillating Temperatures Time [hr] !Hourly
525,1,WEST ZONE,Zone Heating Setpoint Not Met Time [hr] !Hourly
526,1,WEST ZONE,Zone Heating Setpoint Not Met While Occupied Time [hr] !Hourly
527,1,WEST ZONE,Zone Cooling Setpoint Not Met Time [hr] !Hourly
528,1,WEST ZONE,Zone Cooling Setpoint Not Met While Occupied Time [hr] !Hourly
529,1,EAST ZONE,Zone Heating Setpoint Not Met Time [hr] !Hourly
530,1,EAST ZONE,Zone Heating Setpoint Not Met While Occupied Time [hr] !Hourly
531,1,EAST ZONE,Zone Cooling Setpoint Not Met Time [hr] !Hourly
532,1,EAST ZONE,Zone Cooling Setpoint Not Met While Occupied Time [hr] !Hourly
533,1,WEST PLENUM,Zone Heating Setpoint Not Met Time [hr] !Hourly
534,1,WEST PLENUM,Zone Heating Setpoint Not Met While Occupied Time [hr] !Hourly
535,1,WEST PLENUM,Zone Cooling Setpoint Not Met Time [hr] !Hourly
536,1,WEST PLENUM,Zone Cooling Setpoint Not Met While Occupied Time [hr] !Hourly
537,1,EAST PLENUM,Zone Heating Setpoint Not Met Time [hr] !Hourly
538,1,EAST PLENUM,Zone Heating Setpoint Not Met While Occupied Time [hr] !Hourly
539,1,EAST PLENUM,Zone Cooling Setpoint Not Met Time [hr] !Hourly
540,1,EAST PLENUM,Zone Cooling Setpoint Not Met While Occupied Time [hr] !Hourly
541,1,WEST ZONE VAV SYSTEM,Zone Air Terminal VAV Damper Position [] !Hourly
542,1,WEST ZONE VAV SYSTEM,Zone Air Terminal Minimum Air Flow Fraction [] !Hourly
543,1,WEST ZONE VAV SYSTEM,Zone Air Terminal Outdoor Air Volume Flow Rate [m3/s] !Hourly
544,1,EAST ZONE VAV SYSTEM,Zone Air Terminal VAV Damper Position [] !Hourly
545,1,EAST ZONE VAV SYSTEM,Zone Air Terminal Minimum Air Flow Fraction [] !Hourly
546,1,EAST ZONE VAV SYSTEM,Zone Air Terminal Outdoor Air Volume Flow Rate [m3/s] !Hourly
599,1,WEST ZONE CW COOLING COIL,Cooling Coil Total Cooling Rate [W] !TimeStep
600,1,WEST ZONE CW COOLING COIL,Cooling Coil Sensible Cooling Rate [W] !TimeStep
603,1,EAST ZONE CW COOLING COIL,Cooling Coil Total Cooling Rate [W] !TimeStep
604,1,EAST ZONE CW COOLING COIL,Cooling Coil Sensible Cooling Rate [W] !TimeStep
605,1,WEST ZONE SUPPLY FAN,Fan Electric Power [W] !Hourly
606,1,WEST ZONE SUPPLY FAN,Fan Rise in Air Temperature [deltaC] !Hourly
607,1,WEST ZONE SUPPLY FAN,Fan Heat Gain to Air [W] !Hourly
608,1,WEST ZONE SUPPLY FAN,Fan Electric Energy [J] !Hourly
639,1,WEST ZONE SUPPLY FAN,Fan Air Mass Flow Rate [kg/s] !Hourly
640,1,EAST ZONE SUPPLY FAN,Fan Electric Power [W] !Hourly
641,1,EAST ZONE SUPPLY FAN,Fan Rise in Air Temperature [deltaC] !Hourly
642,1,EAST ZONE SUPPLY FAN,Fan Heat Gain to Air [W] !Hourly
643,1,EAST ZONE SUPPLY FAN,Fan Electric Energy [J] !Hourly
644,1,EAST ZONE SUPPLY FAN,Fan Air Mass Flow Rate [kg/s] !Hourly
645,1,WEST DATA CENTER IEC,Evaporative Cooler Total Stage Effectiveness [] !TimeStep
646,1,WEST DATA CENTER IEC,Evaporative Cooler Operating Mode Status [] !TimeStep
647,1,EAST DATA CENTER IEC,Evaporative Cooler Total Stage Effectiveness [] !TimeStep
648,1,EAST DATA CENTER IEC,Evaporative Cooler Operating Mode Status [] !TimeStep
649,1,WEST DATA CENTER DEC,Evaporative Cooler Stage Effectiveness [] !TimeStep
650,1,EAST DATA CENTER DEC,Evaporative Cooler Stage Effectiveness [] !TimeStep
662,1,WEST DATA CENTER IEC,Evaporative Cooler Electric Power [W] !TimeStep
663,1,WEST DATA CENTER IEC,Evaporative Cooler Water Volume [m3] !TimeStep
726,1,EAST DATA CENTER IEC,Evaporative Cooler Electric Power [W] !TimeStep
727,1,EAST DATA CENTER IEC,Evaporative Cooler Water Volume [m3] !TimeStep
730,1,WEST DATA CENTER DEC,Evaporative Cooler Electric Power [W] !TimeStep
731,1,WEST DATA CENTER DEC,Evaporative Cooler Water Volume [m3] !TimeStep
734,1,EAST DATA CENTER DEC,Evaporative Cooler Electric Power [W] !TimeStep
735,1,EAST DATA CENTER DEC,Evaporative Cooler Water Volume [m3] !TimeStep
737,1,WEST DX COOLING COIL,Cooling Coil Total Cooling Rate [W] !TimeStep
739,1,WEST DX COOLING COIL,Cooling Coil Sensible Cooling Rate [W] !TimeStep
741,1,EAST DX COOLING COIL,Cooling Coil Total Cooling Rate [W] !TimeStep
743,1,EAST DX COOLING COIL,Cooling Coil Sensible Cooling Rate [W] !TimeStep
766,1,CHILLER,Chiller Evaporator Cooling Rate [W] !Hourly
788,1,CHILLER,Chiller Evaporator Inlet Temperature [C] !Hourly
789,1,CHILLER,Chiller Evaporator Outlet Temperature [C] !Hourly
790,1,CHILLER,Chiller Condenser Heat Transfer Rate [W] !Hourly
802,1,CHILLER,Chiller Condenser Inlet Temperature [C] !Hourly
803,1,CHILLER,Chiller Condenser Outlet Temperature [C] !Hourly
892,1,WEST ZONE INLET NODE,System Node Temperature [C] !TimeStep
893,1,WEST ZONE INLET NODE,System Node Mass Flow Rate [kg/s] !TimeStep
894,1,WEST OUTSIDE AIR INLET NODE,System Node Temperature [C] !TimeStep
895,1,WEST OUTSIDE AIR INLET NODE,System Node Mass Flow Rate [kg/s] !TimeStep
896,1,WEST IEC SECONDARY AIR INLET NODE,System Node Temperature [C] !TimeStep
897,1,WEST IEC SECONDARY AIR INLET NODE,System Node Mass Flow Rate [kg/s] !TimeStep
898,1,WEST ZONE DEC OUTLET NODE,System Node Temperature [C] !TimeStep
899,1,WEST ZONE DEC OUTLET NODE,System Node Setpoint Temperature [C] !TimeStep
900,1,WEST ZONE IEC OUTLET NODE,System Node Temperature [C] !TimeStep
901,1,WEST ZONE IEC OUTLET NODE,System Node Setpoint Temperature [C] !TimeStep
902,1,WEST ZONE CCOIL AIR OUTLET NODE,System Node Temperature [C] !TimeStep
903,1,WEST ZONE CCOIL AIR OUTLET NODE,System Node Setpoint Temperature [C] !TimeStep
904,1,WEST AIR LOOP OUTLET NODE,System Node Temperature [C] !TimeStep
905,1,WEST AIR LOOP OUTLET NODE,System Node Setpoint Temperature [C] !TimeStep
906,1,EAST ZONE INLET NODE,System Node Temperature [C] !TimeStep
907,1,EAST ZONE INLET NODE,System Node Mass Flow Rate [kg/s] !TimeStep
908,1,EAST OUTSIDE AIR INLET NODE,System Node Temperature [C] !TimeStep
909,1,EAST OUTSIDE AIR INLET NODE,System Node Mass Flow Rate [kg/s] !TimeStep
910,1,EAST IEC SECONDARY AIR INLET NODE,System Node Temperature [C] !TimeStep
911,1,EAST IEC SECONDARY AIR INLET NODE,System Node Mass Flow Rate [kg/s] !TimeStep
912,1,EAST ZONE DEC OUTLET NODE,System Node Temperature [C] !TimeStep
913,1,EAST ZONE DEC OUTLET NODE,System Node Setpoint Temperature [C] !TimeStep
914,1,EAST ZONE IEC OUTLET NODE,System Node Temperature [C] !TimeStep
915,1,EAST ZONE IEC OUTLET NODE,System Node Setpoint Temperature [C] !TimeStep
916,1,EAST ZONE CCOIL AIR OUTLET NODE,System Node Temperature [C] !TimeStep
917,1,EAST ZONE CCOIL AIR OUTLET NODE,System Node Setpoint Temperature [C] !TimeStep
918,1,EAST AIR LOOP OUTLET NODE,System Node Temperature [C] !TimeStep
919,1,EAST AIR LOOP OUTLET NODE,System Node Setpoint Temperature [C] !TimeStep
920,1,WEST ZONE RETURN AIR NODE,System Node Temperature [C] !TimeStep
921,1,WEST ZONE RETURN AIR NODE,System Node Mass Flow Rate [kg/s] !TimeStep
922,1,WEST ZONE MIXED AIR NODE,System Node Temperature [C] !TimeStep
923,1,WEST ZONE MIXED AIR NODE,System Node Mass Flow Rate [kg/s] !TimeStep
924,1,WEST ZONE SUPPLY FAN OUTLET NODE,System Node Temperature [C] !TimeStep
925,1,EAST ZONE SUPPLY FAN OUTLET NODE,System Node Temperature [C] !TimeStep
926,1,WEST IEC SECONDARY AIR OUTLET NODE,System Node Temperature [C] !TimeStep
927,1,WEST IEC SECONDARY AIR OUTLET NODE,System Node Mass Flow Rate [kg/s] !TimeStep
End of Data Dictionary
1,WHOLEYEARDAY,  37.62,-122.40,  -8.00,   2.00
2,1, 1, 1, 0, 1, 0.00,15.00,Tuesday
6,6.825
239,1.030029886631446
312,18.159382097809205
313,40.450584778221138
349,21.600993135056908
350,33.725496202527278
599,0.0
600,0.0
603,0.0
604,0.0
645,0.06045519004716819
647,0.17851125101950186
649,0.14999999999999995
650,0.3499999999999999
662,7.717149532063345
663,0.0
726,9.840962120122687
727,0.0
730,4.194113753783514
731,0.0015716811771205166
734,6.428571428571427
735,0.0021666078624034865
737,0.0
739,0.0
741,0.0
743,0.0
892,12.228004852552712
893,4.9969711468216488
894,6.824999999999999
895,2.7707526249720186
896,6.824999999999999
897,0.3555556317750542
898,11.35407583237691
899,14.29441778571428
900,11.022212653441955
901,14.29441778571428
902,11.022212653441955
903,14.29441778571428
904,11.022212653441955
905,14.29441778571428
906,15.164718714614425
907,4.536717224273913
908,6.824999999999999
909,1.6244885189551038
910,6.824999999999999
911,0.7439917935158597
912,15.111510735242617
913,20.95499542857143
914,13.778663636516195
915,20.95499542857143
916,13.778663636516195
917,20.95499542857143
918,13.778663636516195
919,20.95499542857143
920,18.58701437713981
921,4.9969711468216488
922,11.711241861385377
923,4.9969711468216488
924,12.015790364740236
925,16.56642861803737
926,7.490595620083788
927,0.3555556317750542
646,0.14285714285714286
648,0.42857142857142846
2,1, 1, 1, 0, 1,15.00,30.00,Tuesday
6,6.95
239,1.096093933892184
312,17.62598606557964
313,43.70628618007626
349,18.663182272759543
350,47.16687800041322
599,0.0
600,0.0
603,0.0
604,0.0
645,0.10641481372930492
647,0.13702630376267223
649,0.27999999999999999
650,0.46666666666666659
662,19.814849054174379
663,0.0
726,39.90666713465764
727,0.0
730,4.076303439260624
731,0.0018851116409828594
734,10.0
735,0.005431505586836366
737,0.0
739,0.0
741,0.0
743,0.0
892,13.037930840845414
893,4.6374632037002059
894,6.949999999999998
895,1.9911362985142148
896,6.949999999999998
897,0.6461780848147427
898,12.676519363938434
899,17.420635333333335
900,11.981718507660272
901,17.420635333333335
902,11.981718507660272
903,17.420635333333335
904,11.981718507660272
905,17.420635333333335
906,14.117328883824403
907,5.478973547316812
908,6.949999999999998
909,1.3274837694922186
910,6.949999999999998
911,0.9789106391948554
912,14.596396525201705
913,21.542445866666669
914,13.57348828994775
915,21.542445866666669
916,13.57348828994775
917,21.542445866666669
918,13.57348828994775
919,21.542445866666669
920,17.567053245403874
921,4.6374632037002059
922,13.000138896590589
923,4.6374632037002059
924,13.322270030059374
925,16.274466157782276
926,7.996975219950949
927,0.6461780848147427
646,0.2
648,0.3333333333333333
2,1, 1, 1, 0, 1,30.00,45.00,Tuesday
6,7.075
239,1.0644617106561934
312,18.203937289979558
313,44.70385768667619
349,21.178274363531665
350,41.53946822533449
599,0.0
600,0.0
603,25.889884043732534
604,25.889884043732534
645,0.18519215898234424
647,0.055974390456809287
649,0.12727272727272757
650,0.5727272727272738
662,38.832159477657118
663,0.0
726,10.670192646201724
727,0.0
730,5.4545454545454679
731,0.002328401680707011
734,3.7287726161399128
735,0.0014166854105186048
737,0.0
739,0.0
741,0.0
743,0.0
892,11.91272543359776
893,4.415136457068329
894,7.075000000000013
895,2.478401485377414
896,7.075000000000013
897,1.0374164894981602
898,11.199699689185856
899,12.829002909090937
900,10.03211992472818
901,12.829002909090937
902,10.03211992472818
903,12.829002909090937
904,10.03211992472818
905,12.829002909090937
906,16.572683668736869
907,5.115282921803172
908,7.075000000000013
909,0.9666977392193962
910,7.075000000000013
911,0.33867704549930685
912,17.88532048216357
913,22.77339027272732
914,17.462654173749344
915,22.77339027272732
916,17.462654173749344
917,22.77339027272732
918,17.459005535325838
919,22.77339027272732
920,18.234327666060105
921,4.415136457068329
922,11.767332856508486
923,4.415136457068329
924,12.091134487582478
925,18.514782282487624
926,9.119915425988073
927,1.0374164894981602
646,0.4545454545454551
648,0.09090909090909089
2,1, 1, 1, 0, 1,45.00,60.00,Tuesday
6,7.2
239,1.0778631962750074
312,18.14587210956236
313,47.0392657079589
349,25.667335087431913
350,32.32496387494807
599,0.0
600,0.0
603,2786.938464678284
604,178.41871404778994
645,0.1855344916418853
647,0.21115600640439437
649,0.2333333333333333
650,0.3733333333333333
662,35.93832910066883
663,0.0
726,334.3220433767619
727,0.0
730,6.0
731,0.0021943158483067437
734,10.0
735,0.004577039003285172
737,0.0
739,0.0
741,0.0
743,0.0
892,13.058803580813189
893,3.43958748950559
894,7.200000000000003
895,1.375114779969522
896,7.200000000000003
897,0.924488675021093
898,13.031892625773287
899,18.074494866666666
900,11.886995358759839
901,18.074494866666666
902,11.886995358759839
903,18.074494866666666
904,11.886995358759839
905,18.074494866666666
906,14.439111636510395
907,4.1791237736584059
908,7.200000000000003
909,1.901951798578274
910,7.200000000000003
911,2.4572767676461044
912,15.068896227956149
913,21.54173586666667
914,12.914910044215734
915,21.54173586666667
916,12.914910044215734
917,21.54173586666667
918,12.83793738478213
919,21.54173586666667
920,18.202843295318226
921,3.43958748950559
922,13.58623234422727
923,3.43958748950559
924,13.934273174534234
925,17.292940109532347
926,9.505527718512287
927,0.924488675021093
646,0.4666666666666666
648,0.39999999999999999
2,1, 1, 1, 0, 1, 0.00,60.00,Tuesday
133,10978.540210578305
134,7261.172973049659
135,1823.971318362796
136,13936.849545599995
137,10219.334400000002
138,1823.971318362796
139,20063.684501990763
173,2.664597348869709
174,13.407930770107015
175,5.904159318062226
176,0.6059196777689264
177,21.632218133853664
178,0.07043515712190124
179,1.0
180,0.0
181,0.0
182,0.0
183,0.0
184,0.0
185,1.0
186,0.0
187,0.0
188,0.0
189,0.0
190,0.0
191,-19.394080322231078
192,10978.540210578305
193,7261.172973049659
194,1823.971318362796
195,13936.849545599995
196,10219.334400000002
197,1823.971318362796
198,20063.684501990763
199,17391.400654626654
200,13244.473926930314
201,3063.587458155696
202,15546.354479999996
203,11399.520000000002
204,3063.587458155696
205,33699.46203971266
209,4.788338751423073
210,15.890146830578545
211,5.985338691358656
212,0.5238553647708404
213,23.726354411905676
214,0.06476495367293488
215,1.0
216,0.0
217,0.0
218,0.0
219,0.0
220,0.0
221,1.0
222,0.0
223,0.0
224,0.0
225,0.0
226,0.0
227,-19.47614463522916
228,17391.400654626654
229,13244.473926930314
230,3063.587458155696
231,15546.354479999996
232,11399.520000000002
233,3063.587458155696
234,33699.46203971266
315,20.0
316,23.0
352,20.0
353,23.0
387,0.0
388,0.0
422,0.0
423,0.0
525,1.0
526,0.0
527,0.0
528,0.0
529,0.25
530,0.0
531,0.25
532,0.0
533,0.0
534,0.0
535,0.0
536,0.0
537,0.0
538,0.0
539,0.0
540,0.0
314,4.0
351,4.0
386,0.0
421,0.0
517,53791.54654170345
518,3873.5867523400357
519,57665.13329404348
520,0.016666666666666668
521,0.05
522,0.1432900432900433
523,0.03333333333333333
524,0.1932900432900433
541,0.7009006962466118
542,0.40000000000000027
543,1.7888785825164973
544,0.6907301395863139
545,0.40000000000000027
546,1.2085775995067197
605,1521.5633620352426
606,0.3246305245511507
607,1369.4070258317183
608,5477628.103326871
639,4.372289574273943
640,1697.4999568904684
641,0.32610201026948246
642,1527.7499612014217
643,6110999.844805683
644,4.827524366763075
766,676.0056194570109
788,10.206248237888478
789,9.972760171872407
790,774.0424815363617
802,9.953415161349536
803,9.960467810500239
2,1, 1, 1, 0, 2, 0.00,15.00,Tuesday
6,7.2
239,1.033460062670741
312,17.438044180955847
313,53.018350157486917
349,21.046585236620297
350,43.48818198244906
599,0.0
600,0.0
603,0.0
604,0.0
645,0.20189160880148933
647,0.1888238330395615
649,0.323076923076923
650,0.323076923076923
662,27.641540549150954
663,0.0
726,86.23601789222106
727,0.0
730,11.538461538461539
731,0.0033534044889381448
734,7.528120666570432
735,0.003281221071891156
737,0.0
739,0.0
741,0.0
743,0.0
892,12.770970303059102
893,4.485096182333491
894,7.199999999999999
895,1.7553331288539254
896,7.199999999999999
897,0.9748427920873998
898,12.304226833567152
899,15.796941538461536
900,11.048143830219495
901,15.796941538461536
902,11.048143830219495
903,15.796941538461536
904,11.048143830219495
905,15.796941538461536
906,14.297836854291642
907,5.184273661913544
908,7.199999999999999
909,2.1599657156600955
910,7.199999999999999
911,1.4853614666029703
912,14.571988529208156
913,19.530758230769228
914,13.094592757633296
915,19.530758230769228
916,13.094592757633296
917,19.530758230769228
918,13.094592757633296
919,19.530758230769228
920,17.453142052960584
921,4.485096182333491
922,13.481497216539266
923,4.485096182333491
924,13.798589122453296
925,15.803853520581344
926,9.559566623276608
927,0.9748427920873998
646,0.4615384615384614
648,0.38461538461538449
2,1, 1, 1, 0, 2,15.00,30.00,Tuesday
6,7.2
239,1.086671780488886
312,17.25373837467667
313,54.958322585342887
349,18.766815928831766
350,52.67688361375533
599,0.0
600,0.0
603,24.4959866676459
604,24.495986667647729
645,0.19212014639283793
647,0.09912392308588879
649,0.27999999999999999
650,0.5599999999999998
662,36.72623256549758
663,0.0
726,52.8658731804704
727,0.0
730,10.0
731,0.002554151838478638
734,9.377388093912313
735,0.004599572398894946
737,0.0
739,0.0
741,0.0
743,0.0
892,12.240940598088745
893,4.569127603700206
894,7.200000000000003
895,2.322241751969618
896,7.200000000000003
897,0.9088692838077656
898,11.707937817948859
899,14.932875466666666
900,10.443112880045259
901,14.932875466666666
902,10.443112880045259
903,14.932875466666666
904,10.443112880045259
905,14.932875466666666
906,15.515631920218791
907,5.626725680650144
908,7.200000000000003
909,1.0014059189464304
910,7.200000000000003
911,0.8851432648270747