Program Version,EnergyPlus, Version 8.8.0-Unknown, YMD=2019.07.16 14:14
1,5,Environment Title[],Latitude[deg],Longitude[deg],Time Zone[],Elevation[m]
2,6,Day of Simulation[],Month[],Day of Month[],DST Indicator[1=yes 0=no],Hour[],StartMinute[],EndMinute[],DayType
3,3,Cumulative Day of Simulation[],Month[],Day of Month[],DST Indicator[1=yes 0=no],DayType  ! When Daily Report Variables Requested
4,2,Cumulative Days of Simulation[],Month[]  ! When Monthly Report Variables Requested
5,1,Cumulative Days of Simulation[] ! When Run Period Report Variables Requested
6,1,Environment,Site Outdoor Air Drybulb Temperature [C] !TimeStep
133,1,WESTDATACENTER_EQUIP,ITE CPU Electric Power [W] !Hourly
134,1,WESTDATACENTER_EQUIP,ITE Fan Electric Power [W] !Hourly
135,1,WESTDATACENTER_EQUIP,ITE UPS Electric Power [W] !Hourly
136,1,WESTDATACENTER_EQUIP,ITE CPU Electric Power at Design Inlet Conditions [W] !Hourly
137,1,WESTDATACENTER_EQUIP,ITE Fan Electric Power at Design Inlet Conditions [W] !Hourly
138,1,WESTDATACENTER_EQUIP,ITE UPS Heat Gain to Zone Rate [W] !Hourly
139,1,WESTDATACENTER_EQUIP,ITE Total Heat Gain to Zone Rate [W] !Hourly
173,1,WESTDATACENTER_EQUIP,ITE Standard Density Air Volume Flow Rate [m3/s] !Hourly
174,1,WESTDATACENTER_EQUIP,ITE Air Inlet Dry-Bulb Temperature [C] !Hourly
175,1,WESTDATACENTER_EQUIP,ITE Air Inlet Dewpoint Temperature [C] !Hourly
176,1,WESTDATACENTER_EQUIP,ITE Air Inlet Relative Humidity [%] !Hourly
177,1,WESTDATACENTER_EQUIP,ITE Air Outlet Dry-Bulb Temperature [C] !Hourly
178,1,WESTDATACENTER_EQUIP,ITE Supply Heat Index [] !Hourly
179,1,WESTDATACENTER_EQUIP,ITE Air Inlet Operating Range Exceeded Time [hr] !Hourly
180,1,WESTDATACENTER_EQUIP,ITE Air Inlet Dry-Bulb Temperature Above Operating Range Time [hr] !Hourly
181,1,WESTDATACENTER_EQUIP,ITE Air Inlet Dry-Bulb Temperature Below Operating Range Time [hr] !Hourly
182,1,WESTDATACENTER_EQUIP,ITE Air Inlet Dewpoint Temperature Above Operating Range Time [hr] !Hourly
183,1,WESTDATACENTER_EQUIP,ITE Air Inlet Dewpoint Temperature Below Operating Range Time [hr] !Hourly
184,1,WESTDATACENTER_EQUIP,ITE Air Inlet Relative Humidity Above Operating Range Time [hr] !Hourly
185,1,WESTDATACENTER_EQUIP,ITE Air Inlet Relative Humidity Below Operating Range Time [hr] !Hourly
186,1,WESTDATACENTER_EQUIP,ITE Air Inlet Dry-Bulb Temperature Difference Above Operating Range [deltaC] !Hourly
187,1,WESTDATACENTER_EQUIP,ITE Air Inlet Dry-Bulb Temperature Difference Below Operating Range [deltaC] !Hourly
188,1,WESTDATACENTER_EQUIP,ITE Air Inlet Dewpoint Temperature Difference Above Operating Range [deltaC] !Hourly
189,1,WESTDATACENTER_EQUIP,ITE Air Inlet Dewpoint Temperature Difference Below Operating Range [deltaC] !Hourly
190,1,WESTDATACENTER_EQUIP,ITE Air Inlet Relative Humidity Difference Above Operating Range [%] !Hourly
191,1,WESTDATACENTER_EQUIP,ITE Air Inlet Relative Humidity Difference Below Operating Range [%] !Hourly
192,1,WEST ZONE,Zone ITE CPU Electric Power [W] !Hourly
193,1,WEST ZONE,Zone ITE Fan Electric Power [W] !Hourly
194,1,WEST ZONE,Zone ITE UPS Electric Power [W] !Hourly
195,1,WEST ZONE,Zone ITE CPU Electric Power at Design Inlet Conditions [W] !Hourly
196,1,WEST ZONE,Zone ITE Fan Electric Power at Design Inlet Conditions [W] !Hourly
197,1,WEST ZONE,Zone ITE UPS Heat Gain to Zone Rate [W] !Hourly
198,1,WEST ZONE,Zone ITE Total Heat Gain to Zone Rate [W] !Hourly
199,1,EASTDATACENTER_EQUIP,ITE CPU Electric Power [W] !Hourly
200,1,EASTDATACENTER_EQUIP,ITE Fan Electric Power [W] !Hourly
201,1,EASTDATACENTER_EQUIP,ITE UPS Electric Power [W] !Hourly
202,1,EASTDATACENTER_EQUIP,ITE CPU Electric Power at Design Inlet Conditions [W] !Hourly
203,1,EASTDATACENTER_EQUIP,ITE Fan Electric Power at Design Inlet Conditions [W] !Hourly
204,1,EASTDATACENTER_EQUIP,ITE UPS Heat Gain to Zone Rate [W] !Hourly
205,1,EASTDATACENTER_EQUIP,ITE Total Heat Gain to Zone Rate [W] !Hourly
209,1,EASTDATACENTER_EQUIP,ITE Standard Density Air Volume Flow Rate [m3/s] !Hourly
210,1,EASTDATACENTER_EQUIP,ITE Air Inlet Dry-Bulb Temperature [C] !Hourly
211,1,EASTDATACENTER_EQUIP,ITE Air Inlet Dewpoint Temperature [C] !Hourly
212,1,EASTDATACENTER_EQUIP,ITE Air Inlet Relative Humidity [%] !Hourly
213,1,EASTDATACENTER_EQUIP,ITE Air Outlet Dry-Bulb Temperature [C] !Hourly
214,1,EASTDATACENTER_EQUIP,ITE Supply Heat Index [] !Hourly
215,1,EASTDATACENTER_EQUIP,ITE Air Inlet Operating Range Exceeded Time [hr] !Hourly
216,1,EASTDATACENTER_EQUIP,ITE Air Inlet Dry-Bulb Temperature Above Operating Range Time [hr] !Hourly
217,1,EASTDATACENTER_EQUIP,ITE Air Inlet Dry-Bulb Temperature Below Operating Range Time [hr] !Hourly
218,1,EASTDATACENTER_EQUIP,ITE Air Inlet Dewpoint Temperature Above Operating Range Time [hr] !Hourly
219,1,EASTDATACENTER_EQUIP,ITE Air Inlet Dewpoint Temperature Below Operating Range Time [hr] !Hourly
220,1,EASTDATACENTER_EQUIP,ITE Air Inlet Relative Humidity Above Operating Range Time [hr] !Hourly
221,1,EASTDATACENTER_EQUIP,ITE Air Inlet Relative Humidity Below Operating Range Time [hr] !Hourly
222,1,EASTDATACENTER_EQUIP,ITE Air Inlet Dry-Bulb Temperature Difference Above Operating Range [deltaC] !Hourly
223,1,EASTDATACENTER_EQUIP,ITE Air Inlet Dry-Bulb Temperature Difference Below Operating Range [deltaC] !Hourly
224,1,EASTDATACENTER_EQUIP,ITE Air Inlet Dewpoint Temperature Difference Above Operating Range [deltaC] !Hourly
225,1,EASTDATACENTER_EQUIP,ITE Air Inlet Dewpoint Temperature Difference Below Operating Range [deltaC] !Hourly
226,1,EASTDATACENTER_EQUIP,ITE Air Inlet Relative Humidity Difference Above Operating Range [%] !Hourly
227,1,EASTDATACENTER_EQUIP,ITE Air Inlet Relative Humidity Difference Below Operating Range [%] !Hourly
228,1,EAST ZONE,Zone ITE CPU Electric Power [W] !Hourly
229,1,EAST ZONE,Zone ITE Fan Electric Power [W] !Hourly
230,1,EAST ZONE,Zone ITE UPS Electric Power [W] !Hourly
231,1,EAST ZONE,Zone ITE CPU Electric Power at Design Inlet Conditions [W] !Hourly
232,1,EAST ZONE,Zone ITE Fan Electric Power at Design Inlet Conditions [W] !Hourly
233,1,EAST ZONE,Zone ITE UPS Heat Gain to Zone Rate [W] !Hourly
234,1,EAST ZONE,Zone ITE Total Heat Gain to Zone Rate [W] !Hourly
239,1,EMS,Power Utilization Effectiveness [] !TimeStep
312,1,WEST ZONE,Zone Air Temperature [C] !TimeStep
313,1,WEST ZONE,Zone Air Relative Humidity [%] !TimeStep
314,1,WEST ZONE,Zone Thermostat Control Type [] !Hourly
315,1,WEST ZONE,Zone Thermostat Heating Setpoint Temperature [C] !Hourly
316,1,WEST ZONE,Zone Thermostat Cooling Setpoint Temperature [C] !Hourly
349,1,EAST ZONE,Zone Air Temperature [C] !TimeStep
350,1,EAST ZONE,Zone Air Relative Humidity [%] !TimeStep
351,1,EAST ZONE,Zone Thermostat Control Type [] !Hourly
352,1,EAST ZONE,Zone Thermostat Heating Setpoint Temperature [C] !Hourly
353,1,EAST ZONE,Zone Thermostat Cooling Setpoint Temperature [C] !Hourly
386,1,WEST PLENUM,Zone Thermostat Control Type [] !Hourly
387,1,WEST PLENUM,Zone Thermostat Heating Setpoint Temperature [C] !Hourly
388,1,WEST PLENUM,Zone Thermostat Cooling Setpoint Temperature [C] !Hourly
421,1,EAST PLENUM,Zone Thermostat Control Type [] !Hourly
422,1,EAST PLENUM,Zone Thermostat Heating Setpoint Temperature [C] !Hourly
423,1,EAST PLENUM,Zone Thermostat Cooling Setpoint Temperature [C] !Hourly
517,1,Whole Building,Facility Total Building Electric Demand Power [W] !Hourly
518,1,Whole Building,Facility Total HVAC Electric Demand Power [W] !Hourly
519,1,Whole Building,Facility Total Electric Demand Power [W] !Hourly
520,1,WEST ZONE,Zone Oscillating Temperatures Time [hr] !Hourly
521,1,EAST ZONE,Zone Oscillating Temperatures Time [hr] !Hourly
522,1,WEST PLENUM,Zone Oscillating Temperatures Time [hr] !Hourly
523,1,EAST PLENUM,Zone Oscillating Temperatures Time [hr] !Hourly
524,1,Facility,Facility Any Zone Oscillating Temperatures Time [hr] !Hourly
525,1,WEST ZONE,Zone Heating Setpoint Not Met Time [hr] !Hourly
526,1,WEST ZONE,Zone Heating Setpoint Not Met While Occupied Time [hr] !Hourly
527,1,WEST ZONE,Zone Cooling Setpoint Not Met Time [hr] !Hourly
528,1,WEST ZONE,Zone Cooling Setpoint Not Met While Occupied Time [hr] !Hourly
529,1,EAST ZONE,Zone Heating Setpoint Not Met Time [hr] !Hourly
530,1,EAST ZONE,Zone Heating Setpoint Not Met While Occupied Time [hr] !Hourly
531,1,EAST ZONE,Zone Cooling Setpoint Not Met Time [hr] !Hourly
532,1,EAST ZONE,Zone Cooling Setpoint Not Met While Occupied Time [hr] !Hourly
533,1,WEST PLENUM,Zone Heating Setpoint Not Met Time [hr] !Hourly
534,1,WEST PLENUM,Zone Heating Setpoint Not Met While Occupied Time [hr] !Hourly
535,1,WEST PLENUM,Zone Cooling Setpoint Not Met Time [hr] !Hourly
536,1,WEST PLENUM,Zone Cooling Setpoint Not Met While Occupied Time [hr] !Hourly
537,1,EAST PLENUM,Zone Heating Setpoint Not Met Time [hr] !Hourly
538,1,EAST PLENUM,Zone Heating Setpoint Not Met While Occupied Time [hr] !Hourly
539,1,EAST PLENUM,Zone Cooling Setpoint Not Met Time [hr] !Hourly
540,1,EAST PLENUM,Zone Cooling Setpoint Not Met While Occupied Time [hr] !Hourly
541,1,WEST ZONE VAV SYSTEM,Zone Air Terminal VAV Damper Position [] !Hourly
542,1,WEST ZONE VAV SYSTEM,Zone Air Terminal Minimum Air Flow Fraction [] !Hourly
543,1,WEST ZONE VAV SYSTEM,Zone Air Terminal Outdoor Air Volume Flow Rate [m3/s] !Hourly
544,1,EAST ZONE VAV SYSTEM,Zone Air Terminal VAV Damper Position [] !Hourly
545,1,EAST ZONE VAV SYSTEM,Zone Air Terminal Minimum Air Flow Fraction [] !Hourly
546,1,EAST ZONE VAV SYSTEM,Zone Air Terminal Outdoor Air Volume Flow Rate [m3/s] !Hourly
599,1,WEST ZONE CW COOLING COIL,Cooling Coil Total Cooling Rate [W] !TimeStep
600,1,WEST ZONE CW COOLING COIL,Cooling Coil Sensible Cooling Rate [W] !TimeStep
603,1,EAST ZONE CW COOLING COIL,Cooling Coil Total Cooling Rate [W] !TimeStep
604,1,EAST ZONE CW COOLING COIL,Cooling Coil Sensible Cooling Rate [W] !TimeStep
605,1,WEST ZONE SUPPLY FAN,Fan Electric Power [W] !Hourly
606,1,WEST ZONE SUPPLY FAN,Fan Rise in Air Temperature [deltaC] !Hourly
607,1,WEST ZONE SUPPLY FAN,Fan Heat Gain to Air [W] !Hourly
608,1,WEST ZONE SUPPLY FAN,Fan Electric Energy [J] !Hourly
639,1,WEST ZONE SUPPLY FAN,Fan Air Mass Flow Rate [kg/s] !Hourly
640,1,EAST ZONE SUPPLY FAN,Fan Electric Power [W] !Hourly
641,1,EAST ZONE SUPPLY FAN,Fan Rise in Air Temperature [deltaC] !Hourly
642,1,EAST ZONE SUPPLY FAN,Fan Heat Gain to Air [W] !Hourly
643,1,EAST ZONE SUPPLY FAN,Fan Electric Energy [J] !Hourly
644,1,EAST ZONE SUPPLY FAN,Fan Air Mass Flow Rate [kg/s] !Hourly
645,1,WEST DATA CENTER IEC,Evaporative Cooler Total Stage Effectiveness [] !TimeStep
646,1,WEST DATA CENTER IEC,Evaporative Cooler Operating Mode Status [] !TimeStep
647,1,EAST DATA CENTER IEC,Evaporative Cooler Total Stage Effectiveness [] !TimeStep
648,1,EAST DATA CENTER IEC,Evaporative Cooler Operating Mode Status [] !TimeStep
649,1,WEST DATA CENTER DEC,Evaporative Cooler Stage Effectiveness [] !TimeStep
650,1,EAST DATA CENTER DEC,Evaporative Cooler Stage Effectiveness [] !TimeStep
662,1,WEST DATA CENTER IEC,Evaporative Cooler Electric Power [W] !TimeStep
663,1,WEST DATA CENTER IEC,Evaporative Cooler Water Volume [m3] !TimeStep
726,1,EAST DATA CENTER IEC,Evaporative Cooler Electric Power [W] !TimeStep
727,1,EAST DATA CENTER IEC,Evaporative Cooler Water Volume [m3] !TimeStep
730,1,WEST DATA CENTER DEC,Evaporative Cooler Electric Power [W] !TimeStep
731,1,WEST DATA CENTER DEC,Evaporative Cooler Water Volume [m3] !TimeStep
734,1,EAST DATA CENTER DEC,Evaporative Cooler Electric Power [W] !TimeStep
735,1,EAST DATA CENTER DEC,Evaporative Cooler Water Volume [m3] !TimeStep
737,1,WEST DX COOLING COIL,Cooling Coil Total Cooling Rate [W] !TimeStep
739,1,WEST DX COOLING COIL,Cooling Coil Sensible Cooling Rate [W] !TimeStep
741,1,EAST DX COOLING COIL,Cooling Coil Total Cooling Rate [W] !TimeStep
743,1,EAST DX COOLING COIL,Cooling Coil Sensible Cooling Rate [W] !TimeStep
766,1,CHILLER,Chiller Evaporator Cooling Rate [W] !Hourly
788,1,CHILLER,Chiller Evaporator Inlet Temperature [C] !Hourly
789,1,CHILLER,Chiller Evaporator Outlet Temperature [C] !Hourly
790,1,CHILLER,Chiller Condenser Heat Transfer Rate [W] !Hourly
802,1,CHILLER,Chiller Condenser Inlet Temperature [C] !Hourly
803,1,CHILLER,Chiller Condenser Outlet Temperature [C] !Hourly
892,1,WEST ZONE INLET NODE,System Node Temperature [C] !TimeStep
893,1,WEST ZONE INLET NODE,System Node Mass Flow Rate [kg/s] !TimeStep
894,1,WEST OUTSIDE AIR INLET NODE,System Node Temperature [C] !TimeStep
895,1,WEST OUTSIDE AIR INLET NODE,System Node Mass Flow Rate [kg/s] !TimeStep
896,1,WEST IEC SECONDARY AIR INLET NODE,System Node Temperature [C] !TimeStep
897,1,WEST IEC SECONDARY AIR INLET NODE,System Node Mass Flow Rate [kg/s] !TimeStep
898,1,WEST ZONE DEC OUTLET NODE,System Node Temperature [C] !TimeStep
899,1,WEST ZONE DEC OUTLET NODE,System Node Setpoint Temperature [C] !TimeStep
900,1,WEST ZONE IEC OUTLET NODE,System Node Temperature [C] !TimeStep
901,1,WEST ZONE IEC OUTLET NODE,System Node Setpoint Temperature [C] !TimeStep
902,1,WEST ZONE CCOIL AIR OUTLET NODE,System Node Temperature [C] !TimeStep
903,1,WEST ZONE CCOIL AIR OUTLET NODE,System Node Setpoint Temperature [C] !TimeStep
904,1,WEST AIR LOOP OUTLET NODE,System Node Temperature [C] !TimeStep
905,1,WEST AIR LOOP OUTLET NODE,System Node Setpoint Temperature [C] !TimeStep
906,1,EAST ZONE INLET NODE,System Node Temperature [C] !TimeStep
907,1,EAST ZONE INLET NODE,System Node Mass Flow Rate [kg/s] !TimeStep
908,1,EAST OUTSIDE AIR INLET NODE,System Node Temperature [C] !TimeStep
909,1,EAST OUTSIDE AIR INLET NODE,System Node Mass Flow Rate [kg/s] !TimeStep
910,1,EAST IEC SECONDARY AIR INLET NODE,System Node Temperature [C] !TimeStep
911,1,EAST IEC SECONDARY AIR INLET NODE,System Node Mass Flow Rate [kg/s] !TimeStep
912,1,EAST ZONE DEC OUTLET NODE,System Node Temperature [C] !TimeStep
913,1,EAST ZONE DEC OUTLET NODE,System Node Setpoint Temperature [C] !TimeStep
914,1,EAST ZONE IEC OUTLET NODE,System Node Temperature [C] !TimeStep
915,1,EAST ZONE IEC OUTLET NODE,System Node Setpoint Temperature [C] !TimeStep
916,1,EAST ZONE CCOIL AIR OUTLET NODE,System Node Temperature [C] !TimeStep
917,1,EAST ZONE CCOIL AIR OUTLET NODE,System Node Setpoint Temperature [C] !TimeStep
918,1,EAST AIR LOOP OUTLET NODE,System Node Temperature [C] !TimeStep
919,1,EAST AIR LOOP OUTLET NODE,System Node Setpoint Temperature [C] !TimeStep
920,1,WEST ZONE RETURN AIR NODE,System Node Temperature [C] !TimeStep
921,1,WEST ZONE RETURN AIR NODE,System Node Mass Flow Rate [kg/s] !TimeStep
922,1,WEST ZONE MIXED AIR NODE,System Node Temperature [C] !TimeStep
923,1,WEST ZONE MIXED AIR NODE,System Node Mass Flow Rate [kg/s] !TimeStep
924,1,WEST ZONE SUPPLY FAN OUTLET NODE,System Node Temperature [C] !TimeStep
925,1,EAST ZONE SUPPLY FAN OUTLET NODE,System Node Temperature [C] !TimeStep
926,1,WEST IEC SECONDARY AIR OUTLET NODE,System Node Temperature [C] !TimeStep
927,1,WEST IEC SECONDARY AIR OUTLET NODE,System Node Mass Flow Rate [kg/s] !TimeStep
End of Data Dictionary
1,WHOLEYEARDAY,  37.62,-122.40,  -8.00,   2.00
2,1, 1, 1, 0, 1, 0.00,15.00,Tuesday
6,6.825
239,1.0300298866314462
312,20.919900483359947
313,33.26110784944743
349,22.537330129186399
350,29.466077903595154
599,0.0
600,0.0
603,0.0
604,0.0
645,0.13910351693418694
647,0.0
649,0.35
650,0.7
662,40.80303110360203
663,0.0
726,0.0
727,0.0
730,7.5
731,0.004508409699710638
734,0.0
735,0.0
737,0.0
739,0.0
741,0.0
743,0.0
892,14.729140644533104
893,3.9638050856459619
894,6.825
895,0.8065011193775911
896,6.825
897,0.9872511182266552
898,14.190781999336075
899,29.862842999999999
900,13.199812725517563
901,29.862842999999999
902,13.199812725517563
903,29.862842999999999
904,13.199812725517563
905,29.862842999999999
906,18.86936546634345
907,5.816403017479347
908,6.825
909,0.0
910,6.825
911,0.0
912,22.615234187286874
913,40.0
914,22.615234187286874
915,40.0
916,22.615234187286874
917,40.0
918,22.615234187286874
919,40.0
920,21.271246568078813
921,3.9638050856459619
922,15.28094732930084
923,3.9638050856459619
924,15.643741136490853
925,22.615234187286874
926,8.246304390229227
927,0.9872511182266552
646,0.25
648,0.0
2,1, 1, 1, 0, 1,15.00,30.00,Tuesday
6,6.95
239,1.0816761518993059
312,20.59152683461202
313,39.14040566143895
349,30.8541887397394
350,20.334392417897076
599,0.0
600,0.0
603,1.6636525534588145
604,1.6636525534583387
645,0.10576949406803533
647,0.05808685645764167
649,0.5133333333333332
650,0.6066666666666665
662,20.508973558022743
663,0.0
726,0.3145456411479216
727,0.0
730,6.8546752089203208
731,0.0030125760684155185
734,7.450267976351573
735,0.003872360317044076
737,0.0
739,0.0
741,0.0
743,0.0
892,15.395145074707508
893,4.098263822838923
894,6.9499999999999979
895,0.9759756343578006
896,6.9499999999999979
897,0.5899751072150465
898,16.258257671778858
899,22.298705533333338
900,15.397993695606996
901,22.298705533333338
902,15.397993695606996
903,22.298705533333338
904,15.397993695606996
905,22.298705533333338
906,22.999697812981535
907,3.5686678666666666
908,6.9499999999999979
909,0.512982082417482
910,6.9499999999999979
911,0.11972394416355938
912,24.686086466556465
913,32.873293933333339
914,24.06626719656478
915,32.873293933333339
916,24.06626719656478
917,32.873293933333339
918,24.065334672222698
919,32.873293933333339
920,20.553538835096135
921,4.098263822838923
922,17.321089148297788
923,4.098263822838923
924,17.61546233671808
925,27.046925557202937
926,8.229099322878941
927,0.5899751072150465
646,0.2
648,0.2
2,1, 1, 1, 0, 1,30.00,45.00,Tuesday
6,7.075
239,1.0418884719925424
312,27.402381848574309
313,29.064737723451726
349,38.39148204081133
350,16.24235603592221
599,0.0
600,0.0
603,0.0
604,0.0
645,0.09591148471449021
647,0.08389961417320388
649,0.6533333333333331
650,0.5133333333333332
662,193.42577348140936
663,0.0
726,0.9018887639917115
727,0.0
730,6.810542185482785
731,0.004807840823503509
734,5.189536046602269
735,0.003040436801991818
737,2714.500709301235
739,172.8488228404675
741,0.0
743,0.0
892,21.529670109946065
893,4.013073624689026
894,7.075
895,0.2801443495170032
896,7.075
897,1.2183269854174997
898,22.939763611656625
899,29.177898199999999
900,21.850126605137687
901,29.177898199999999
902,21.815042395428298
903,29.177898199999999
904,21.815042395428298
905,29.177898199999999
906,25.886473045005503
907,3.951598737994492
908,7.075
909,0.9014856974816761
910,7.075
911,0.18329937910624864
912,30.572618163604738
913,33.497688933333339
914,28.241727888555663
915,33.497688933333339
916,28.241727888555663
917,33.497688933333339
918,28.241727888555663
919,33.497688933333339
920,26.636677473675396
921,4.013073624689026
922,24.38666249576772
923,4.013073624689026
924,24.719384109727558
925,31.98898026727094
926,7.6021700641351759
927,1.2183269854174997
646,0.13333333333333334
648,0.26666666666666669
2,1, 1, 1, 0, 1,45.00,60.00,Tuesday
6,7.2
239,1.0516411446929024
312,34.549492949575029
313,20.587308418336087
349,45.998159255116679
350,10.790374875161663
599,0.0
600,0.0
603,68.31214522938399
604,68.3121452293868
645,0.16865156769923657
647,0.11341966448061797
649,0.32666666666666668
650,0.41999999999999995
662,130.5969024183562
663,0.0
726,114.30457681142927
727,0.0
730,4.484076422789675
731,0.0026193231317389565
734,2.3693087388001317
735,0.0019817125508406528
737,2561.2927274532517
739,1712.8932002819763
741,0.0
743,0.0
892,19.766722298443847
893,3.692188201850103
894,7.200000000000003
895,1.056388870517649
896,7.200000000000003
897,1.264408169478247
898,24.583960769566809
899,27.4348112
900,21.106297285979684
901,27.4348112
902,20.83605628957128
903,27.4348112
904,20.83605628957128
905,27.4348112
906,27.697326924163688
907,3.73856910233058
908,7.200000000000003
909,0.9589281771502635
910,7.200000000000003
911,1.0103763182786219
912,34.338088831088317
913,35.3369224
914,30.815827823063978
915,35.3369224
916,30.815827823063978
917,35.3369224
918,30.796122089782679
919,35.3369224
920,33.942979072155868
921,3.692188201850103
922,25.519395188672357
923,3.692188201850103
924,25.85210000072255
925,35.445808302632759
926,14.908895461639828
927,1.264408169478247
646,0.4666666666666666
648,0.3333333333333333
2,1, 1, 1, 0, 1, 0.00,60.00,Tuesday
133,20637.588741735293
134,16919.738575926505
135,3755.732731766179
136,13936.849545599995
137,10219.334400000002
138,3755.732731766179
139,41313.06004942798
173,6.025530424409945
174,18.60612751527103
175,7.296781127629548
176,0.4935534695763981
177,26.202296017602973
178,0.07716698074682435
179,1.0
180,0.0
181,0.0
182,0.0
183,0.0
184,0.0
185,1.0
186,0.0
187,0.0
188,0.0
189,0.0
190,0.0
191,-19.506446530423604
192,20637.588741735293
193,16919.738575926505
194,3755.732731766179
195,13936.849545599995
196,10219.334400000002
197,3755.732731766179
198,41313.06004942798
199,34837.90848361739
200,30690.109474143694
201,6552.801795776108
202,15546.354479999996
203,11399.520000000002
204,6552.801795776108
205,72080.81975353719
209,10.70804700744763
210,24.307255227219245
211,6.230971387237405
212,0.3349619738284822
213,31.731928353679288
214,0.07966636771960928
215,1.0
216,0.0
217,0.0
218,0.0
219,0.0
220,0.0
221,1.0
222,0.0
223,0.0
224,0.0
225,0.0
226,0.0
227,-19.66503802617152
228,34837.90848361739
229,30690.109474143694
230,6552.801795776108
231,15546.354479999996
232,11399.520000000002
233,6552.801795776108
234,72080.81975353719
315,20.0
316,23.0
352,20.0
353,23.0
387,0.0
388,0.0
422,0.0
423,0.0
525,0.0
526,0.0
527,0.5
528,0.0
529,0.0
530,0.0
531,0.75
532,0.0
533,0.0
534,0.0
535,0.0
536,0.0
537,0.0
538,0.0
539,0.0
540,0.0
314,4.0
351,4.0
386,0.0
421,0.0
517,113422.27980296518
518,3624.285245616239
519,117046.5650485814
520,0.05
521,0.0
522,0.016666666666666668
523,0.11249999999999999
524,0.17916666666666665
541,0.631896224071807
542,0.4
543,0.6476224876764314
544,0.6107883218998567
545,0.4
546,0.49280528336612985
605,1394.0011261925329
606,0.3306483554050812
607,1254.6010135732793
608,5018404.0542931179
639,3.9418326837560029
640,1536.1819924070562
641,0.34944804240631979
642,1382.5637931663505
643,5530255.172665402
644,4.268809681117771
766,11.535980572487059
788,10.205049087793576
789,10.098211460481059
790,13.206518903053296
802,9.911863441918367
803,9.911983769875226
2,1, 1, 1, 0, 2, 0.00,15.00,Tuesday
6,7.2
239,1.0264677127933335
312,36.48331833254911
313,18.166062795063057
349,45.58192493076518
350,11.00468926636153
599,0.0
600,0.0
603,32.12544475904947
604,32.125444759052928
645,0.15456614693706939
647,0.09815429075304214
649,0.2333333333333333
650,0.2333333333333333
662,196.01034822355224
663,0.0
726,1.5246169522411624
727,0.0
730,2.0
731,0.0007022002360613291
734,0.0
735,0.0
737,1879.373365928523
739,1374.943822668573
741,0.0
743,0.0
892,22.211882446015758
893,2.882528466666667
894,7.200000000000003
895,0.7990159480720516
896,7.200000000000003
897,1.4335612449237783
898,26.74673392366117
899,27.081689466666665
900,22.609721061029643
901,27.081689466666665
902,21.836414777119427
903,27.081689466666665
904,21.836414777119427
905,27.081689466666665
906,28.094869024194418
907,3.7590629023305794
908,7.200000000000003
909,1.1719833243111664
910,7.200000000000003
911,0.28833136772982279
912,33.366174338197918
913,35.140635333333339
914,30.145836774831456
915,35.140635333333339
916,30.145836774831456
917,35.140635333333339
918,30.137366202037538
919,35.140635333333339
920,36.45916095912829
921,2.882528466666667
922,27.086452925447074
923,2.882528466666667
924,27.469917052388408
925,33.366174338197918
926,10.210648231313629
927,1.4335612449237783
646,0.26666666666666669
648,0.26666666666666669
2,1, 1, 1, 0, 2,15.00,30.00,Tuesday
6,7.2
239,1.0177985369019625
312,29.213813296463966
313,26.59091070145218
349,50.78715186149843
350,9.047084641126207
599,0.0
600,0.0
603,1.140285533342095
604,1.1402855333411406
645,0.19589703994178415
647,0.05428105911777422
649,0.5133333333333332
650,0.32666666666666668
662,386.8515469628187
663,0.0
726,2.661684546009801
727,0.0
730,9.618634289284774
731,0.00727807184305306
734,3.104128891527092
735,0.0032838700587607537
737,9057.223155690852
739,2518.6524439636337
741,0.0
743,0.0
892,16.765985438998734
893,4.563742379011179
894,7.200000000000003
895,1.5995236972397789
896,7.200000000000003
897,2.442061571479969
898,19.6531082279374
899,24.400387
900,16.355367833796078
901,24.400387
902,15.822006392343939
903,24.400387
904,15.822006392343939
905,24.400387
906,30.63769081830332
907,3.93503710233058
908,7.200000000000003
909,1.32483274209734
910,7.200000000000003
911,0.23057393555249107
912,34.61501581886383
913,35.442007466666677
914,33.381390538068689
915,35.442007466666677
916,33.381390538068689
917,35.442007466666677
918,33.3811922148441
919,35.442007466666677
920,29.606939833862154
921,4.563742379011179
922,22.11185994244353
923,4.563742379011179
924,22.42032097428897