Program Version,EnergyPlus, Version 8.8.0-Unknown, YMD=2019.07.12 13:56
1,5,Environment Title[],Latitude[deg],Longitude[deg],Time Zone[],Elevation[m]
2,6,Day of Simulation[],Month[],Day of Month[],DST Indicator[1=yes 0=no],Hour[],StartMinute[],EndMinute[],DayType
3,3,Cumulative Day of Simulation[],Month[],Day of Month[],DST Indicator[1=yes 0=no],DayType  ! When Daily Report Variables Requested
4,2,Cumulative Days of Simulation[],Month[]  ! When Monthly Report Variables Requested
5,1,Cumulative Days of Simulation[] ! When Run Period Report Variables Requested
6,1,Environment,Site Outdoor Air Drybulb Temperature [C] !TimeStep
133,1,WESTDATACENTER_EQUIP,ITE CPU Electric Power [W] !Hourly
134,1,WESTDATACENTER_EQUIP,ITE Fan Electric Power [W] !Hourly
135,1,WESTDATACENTER_EQUIP,ITE UPS Electric Power [W] !Hourly
136,1,WESTDATACENTER_EQUIP,ITE CPU Electric Power at Design Inlet Conditions [W] !Hourly
137,1,WESTDATACENTER_EQUIP,ITE Fan Electric Power at Design Inlet Conditions [W] !Hourly
138,1,WESTDATACENTER_EQUIP,ITE UPS Heat Gain to Zone Rate [W] !Hourly
139,1,WESTDATACENTER_EQUIP,ITE Total Heat Gain to Zone Rate [W] !Hourly
173,1,WESTDATACENTER_EQUIP,ITE Standard Density Air Volume Flow Rate [m3/s] !Hourly
174,1,WESTDATACENTER_EQUIP,ITE Air Inlet Dry-Bulb Temperature [C] !Hourly
175,1,WESTDATACENTER_EQUIP,ITE Air Inlet Dewpoint Temperature [C] !Hourly
176,1,WESTDATACENTER_EQUIP,ITE Air Inlet Relative Humidity [%] !Hourly
177,1,WESTDATACENTER_EQUIP,ITE Air Outlet Dry-Bulb Temperature [C] !Hourly
178,1,WESTDATACENTER_EQUIP,ITE Supply Heat Index [] !Hourly
179,1,WESTDATACENTER_EQUIP,ITE Air Inlet Operating Range Exceeded Time [hr] !Hourly
180,1,WESTDATACENTER_EQUIP,ITE Air Inlet Dry-Bulb Temperature Above Operating Range Time [hr] !Hourly
181,1,WESTDATACENTER_EQUIP,ITE Air Inlet Dry-Bulb Temperature Below Operating Range Time [hr] !Hourly
182,1,WESTDATACENTER_EQUIP,ITE Air Inlet Dewpoint Temperature Above Operating Range Time [hr] !Hourly
183,1,WESTDATACENTER_EQUIP,ITE Air Inlet Dewpoint Temperature Below Operating Range Time [hr] !Hourly
184,1,WESTDATACENTER_EQUIP,ITE Air Inlet Relative Humidity Above Operating Range Time [hr] !Hourly
185,1,WESTDATACENTER_EQUIP,ITE Air Inlet Relative Humidity Below Operating Range Time [hr] !Hourly
186,1,WESTDATACENTER_EQUIP,ITE Air Inlet Dry-Bulb Temperature Difference Above Operating Range [deltaC] !Hourly
187,1,WESTDATACENTER_EQUIP,ITE Air Inlet Dry-Bulb Temperature Difference Below Operating Range [deltaC] !Hourly
188,1,WESTDATACENTER_EQUIP,ITE Air Inlet Dewpoint Temperature Difference Above Operating Range [deltaC] !Hourly
189,1,WESTDATACENTER_EQUIP,ITE Air Inlet Dewpoint Temperature Difference Below Operating Range [deltaC] !Hourly
190,1,WESTDATACENTER_EQUIP,ITE Air Inlet Relative Humidity Difference Above Operating Range [%] !Hourly
191,1,WESTDATACENTER_EQUIP,ITE Air Inlet Relative Humidity Difference Below Operating Range [%] !Hourly
192,1,WEST ZONE,Zone ITE CPU Electric Power [W] !Hourly
193,1,WEST ZONE,Zone ITE Fan Electric Power [W] !Hourly
194,1,WEST ZONE,Zone ITE UPS Electric Power [W] !Hourly
195,1,WEST ZONE,Zone ITE CPU Electric Power at Design Inlet Conditions [W] !Hourly
196,1,WEST ZONE,Zone ITE Fan Electric Power at Design Inlet Conditions [W] !Hourly
197,1,WEST ZONE,Zone ITE UPS Heat Gain to Zone Rate [W] !Hourly
198,1,WEST ZONE,Zone ITE Total Heat Gain to Zone Rate [W] !Hourly
199,1,EASTDATACENTER_EQUIP,ITE CPU Electric Power [W] !Hourly
200,1,EASTDATACENTER_EQUIP,ITE Fan Electric Power [W] !Hourly
201,1,EASTDATACENTER_EQUIP,ITE UPS Electric Power [W] !Hourly
202,1,EASTDATACENTER_EQUIP,ITE CPU Electric Power at Design Inlet Conditions [W] !Hourly
203,1,EASTDATACENTER_EQUIP,ITE Fan Electric Power at Design Inlet Conditions [W] !Hourly
204,1,EASTDATACENTER_EQUIP,ITE UPS Heat Gain to Zone Rate [W] !Hourly
205,1,EASTDATACENTER_EQUIP,ITE Total Heat Gain to Zone Rate [W] !Hourly
209,1,EASTDATACENTER_EQUIP,ITE Standard Density Air Volume Flow Rate [m3/s] !Hourly
210,1,EASTDATACENTER_EQUIP,ITE Air Inlet Dry-Bulb Temperature [C] !Hourly
211,1,EASTDATACENTER_EQUIP,ITE Air Inlet Dewpoint Temperature [C] !Hourly
212,1,EASTDATACENTER_EQUIP,ITE Air Inlet Relative Humidity [%] !Hourly
213,1,EASTDATACENTER_EQUIP,ITE Air Outlet Dry-Bulb Temperature [C] !Hourly
214,1,EASTDATACENTER_EQUIP,ITE Supply Heat Index [] !Hourly
215,1,EASTDATACENTER_EQUIP,ITE Air Inlet Operating Range Exceeded Time [hr] !Hourly
216,1,EASTDATACENTER_EQUIP,ITE Air Inlet Dry-Bulb Temperature Above Operating Range Time [hr] !Hourly
217,1,EASTDATACENTER_EQUIP,ITE Air Inlet Dry-Bulb Temperature Below Operating Range Time [hr] !Hourly
218,1,EASTDATACENTER_EQUIP,ITE Air Inlet Dewpoint Temperature Above Operating Range Time [hr] !Hourly
219,1,EASTDATACENTER_EQUIP,ITE Air Inlet Dewpoint Temperature Below Operating Range Time [hr] !Hourly
220,1,EASTDATACENTER_EQUIP,ITE Air Inlet Relative Humidity Above Operating Range Time [hr] !Hourly
221,1,EASTDATACENTER_EQUIP,ITE Air Inlet Relative Humidity Below Operating Range Time [hr] !Hourly
222,1,EASTDATACENTER_EQUIP,ITE Air Inlet Dry-Bulb Temperature Difference Above Operating Range [deltaC] !Hourly
223,1,EASTDATACENTER_EQUIP,ITE Air Inlet Dry-Bulb Temperature Difference Below Operating Range [deltaC] !Hourly
224,1,EASTDATACENTER_EQUIP,ITE Air Inlet Dewpoint Temperature Difference Above Operating Range [deltaC] !Hourly
225,1,EASTDATACENTER_EQUIP,ITE Air Inlet Dewpoint Temperature Difference Below Operating Range [deltaC] !Hourly
226,1,EASTDATACENTER_EQUIP,ITE Air Inlet Relative Humidity Difference Above Operating Range [%] !Hourly
227,1,EASTDATACENTER_EQUIP,ITE Air Inlet Relative Humidity Difference Below Operating Range [%] !Hourly
228,1,EAST ZONE,Zone ITE CPU Electric Power [W] !Hourly
229,1,EAST ZONE,Zone ITE Fan Electric Power [W] !Hourly
230,1,EAST ZONE,Zone ITE UPS Electric Power [W] !Hourly
231,1,EAST ZONE,Zone ITE CPU Electric Power at Design Inlet Conditions [W] !Hourly
232,1,EAST ZONE,Zone ITE Fan Electric Power at Design Inlet Conditions [W] !Hourly
233,1,EAST ZONE,Zone ITE UPS Heat Gain to Zone Rate [W] !Hourly
234,1,EAST ZONE,Zone ITE Total Heat Gain to Zone Rate [W] !Hourly
239,1,EMS,Power Utilization Effectiveness [] !TimeStep
312,1,WEST ZONE,Zone Air Temperature [C] !TimeStep
313,1,WEST ZONE,Zone Air Relative Humidity [%] !TimeStep
314,1,WEST ZONE,Zone Thermostat Control Type [] !Hourly
315,1,WEST ZONE,Zone Thermostat Heating Setpoint Temperature [C] !Hourly
316,1,WEST ZONE,Zone Thermostat Cooling Setpoint Temperature [C] !Hourly
349,1,EAST ZONE,Zone Air Temperature [C] !TimeStep
350,1,EAST ZONE,Zone Air Relative Humidity [%] !TimeStep
351,1,EAST ZONE,Zone Thermostat Control Type [] !Hourly
352,1,EAST ZONE,Zone Thermostat Heating Setpoint Temperature [C] !Hourly
353,1,EAST ZONE,Zone Thermostat Cooling Setpoint Temperature [C] !Hourly
386,1,WEST PLENUM,Zone Thermostat Control Type [] !Hourly
387,1,WEST PLENUM,Zone Thermostat Heating Setpoint Temperature [C] !Hourly
388,1,WEST PLENUM,Zone Thermostat Cooling Setpoint Temperature [C] !Hourly
421,1,EAST PLENUM,Zone Thermostat Control Type [] !Hourly
422,1,EAST PLENUM,Zone Thermostat Heating Setpoint Temperature [C] !Hourly
423,1,EAST PLENUM,Zone Thermostat Cooling Setpoint Temperature [C] !Hourly
517,1,Whole Building,Facility Total Building Electric Demand Power [W] !Hourly
518,1,Whole Building,Facility Total HVAC Electric Demand Power [W] !Hourly
519,1,Whole Building,Facility Total Electric Demand Power [W] !Hourly
520,1,WEST ZONE,Zone Oscillating Temperatures Time [hr] !Hourly
521,1,EAST ZONE,Zone Oscillating Temperatures Time [hr] !Hourly
522,1,WEST PLENUM,Zone Oscillating Temperatures Time [hr] !Hourly
523,1,EAST PLENUM,Zone Oscillating Temperatures Time [hr] !Hourly
524,1,Facility,Facility Any Zone Oscillating Temperatures Time [hr] !Hourly
525,1,WEST ZONE,Zone Heating Setpoint Not Met Time [hr] !Hourly
526,1,WEST ZONE,Zone Heating Setpoint Not Met While Occupied Time [hr] !Hourly
527,1,WEST ZONE,Zone Cooling Setpoint Not Met Time [hr] !Hourly
528,1,WEST ZONE,Zone Cooling Setpoint Not Met While Occupied Time [hr] !Hourly
529,1,EAST ZONE,Zone Heating Setpoint Not Met Time [hr] !Hourly
530,1,EAST ZONE,Zone Heating Setpoint Not Met While Occupied Time [hr] !Hourly
531,1,EAST ZONE,Zone Cooling Setpoint Not Met Time [hr] !Hourly
532,1,EAST ZONE,Zone Cooling Setpoint Not Met While Occupied Time [hr] !Hourly
533,1,WEST PLENUM,Zone Heating Setpoint Not Met Time [hr] !Hourly
534,1,WEST PLENUM,Zone Heating Setpoint Not Met While Occupied Time [hr] !Hourly
535,1,WEST PLENUM,Zone Cooling Setpoint Not Met Time [hr] !Hourly
536,1,WEST PLENUM,Zone Cooling Setpoint Not Met While Occupied Time [hr] !Hourly
537,1,EAST PLENUM,Zone Heating Setpoint Not Met Time [hr] !Hourly
538,1,EAST PLENUM,Zone Heating Setpoint Not Met While Occupied Time [hr] !Hourly
539,1,EAST PLENUM,Zone Cooling Setpoint Not Met Time [hr] !Hourly
540,1,EAST PLENUM,Zone Cooling Setpoint Not Met While Occupied Time [hr] !Hourly
541,1,WEST ZONE VAV SYSTEM,Zone Air Terminal VAV Damper Position [] !Hourly
542,1,WEST ZONE VAV SYSTEM,Zone Air Terminal Minimum Air Flow Fraction [] !Hourly
543,1,WEST ZONE VAV SYSTEM,Zone Air Terminal Outdoor Air Volume Flow Rate [m3/s] !Hourly
544,1,EAST ZONE VAV SYSTEM,Zone Air Terminal VAV Damper Position [] !Hourly
545,1,EAST ZONE VAV SYSTEM,Zone Air Terminal Minimum Air Flow Fraction [] !Hourly
546,1,EAST ZONE VAV SYSTEM,Zone Air Terminal Outdoor Air Volume Flow Rate [m3/s] !Hourly
599,1,WEST ZONE CW COOLING COIL,Cooling Coil Total Cooling Rate [W] !TimeStep
600,1,WEST ZONE CW COOLING COIL,Cooling Coil Sensible Cooling Rate [W] !TimeStep
603,1,EAST ZONE CW COOLING COIL,Cooling Coil Total Cooling Rate [W] !TimeStep
604,1,EAST ZONE CW COOLING COIL,Cooling Coil Sensible Cooling Rate [W] !TimeStep
605,1,WEST ZONE SUPPLY FAN,Fan Electric Power [W] !Hourly
606,1,WEST ZONE SUPPLY FAN,Fan Rise in Air Temperature [deltaC] !Hourly
607,1,WEST ZONE SUPPLY FAN,Fan Heat Gain to Air [W] !Hourly
608,1,WEST ZONE SUPPLY FAN,Fan Electric Energy [J] !Hourly
639,1,WEST ZONE SUPPLY FAN,Fan Air Mass Flow Rate [kg/s] !Hourly
640,1,EAST ZONE SUPPLY FAN,Fan Electric Power [W] !Hourly
641,1,EAST ZONE SUPPLY FAN,Fan Rise in Air Temperature [deltaC] !Hourly
642,1,EAST ZONE SUPPLY FAN,Fan Heat Gain to Air [W] !Hourly
643,1,EAST ZONE SUPPLY FAN,Fan Electric Energy [J] !Hourly
644,1,EAST ZONE SUPPLY FAN,Fan Air Mass Flow Rate [kg/s] !Hourly
645,1,WEST DATA CENTER IEC,Evaporative Cooler Total Stage Effectiveness [] !TimeStep
646,1,WEST DATA CENTER IEC,Evaporative Cooler Operating Mode Status [] !TimeStep
647,1,EAST DATA CENTER IEC,Evaporative Cooler Total Stage Effectiveness [] !TimeStep
648,1,EAST DATA CENTER IEC,Evaporative Cooler Operating Mode Status [] !TimeStep
649,1,WEST DATA CENTER DEC,Evaporative Cooler Stage Effectiveness [] !TimeStep
650,1,EAST DATA CENTER DEC,Evaporative Cooler Stage Effectiveness [] !TimeStep
662,1,WEST DATA CENTER IEC,Evaporative Cooler Electric Power [W] !TimeStep
663,1,WEST DATA CENTER IEC,Evaporative Cooler Water Volume [m3] !TimeStep
726,1,EAST DATA CENTER IEC,Evaporative Cooler Electric Power [W] !TimeStep
727,1,EAST DATA CENTER IEC,Evaporative Cooler Water Volume [m3] !TimeStep
730,1,WEST DATA CENTER DEC,Evaporative Cooler Electric Power [W] !TimeStep
731,1,WEST DATA CENTER DEC,Evaporative Cooler Water Volume [m3] !TimeStep
734,1,EAST DATA CENTER DEC,Evaporative Cooler Electric Power [W] !TimeStep
735,1,EAST DATA CENTER DEC,Evaporative Cooler Water Volume [m3] !TimeStep
737,1,WEST DX COOLING COIL,Cooling Coil Total Cooling Rate [W] !TimeStep
739,1,WEST DX COOLING COIL,Cooling Coil Sensible Cooling Rate [W] !TimeStep
741,1,EAST DX COOLING COIL,Cooling Coil Total Cooling Rate [W] !TimeStep
743,1,EAST DX COOLING COIL,Cooling Coil Sensible Cooling Rate [W] !TimeStep
766,1,CHILLER,Chiller Evaporator Cooling Rate [W] !Hourly
788,1,CHILLER,Chiller Evaporator Inlet Temperature [C] !Hourly
789,1,CHILLER,Chiller Evaporator Outlet Temperature [C] !Hourly
790,1,CHILLER,Chiller Condenser Heat Transfer Rate [W] !Hourly
802,1,CHILLER,Chiller Condenser Inlet Temperature [C] !Hourly
803,1,CHILLER,Chiller Condenser Outlet Temperature [C] !Hourly
892,1,WEST ZONE INLET NODE,System Node Temperature [C] !TimeStep
893,1,WEST ZONE INLET NODE,System Node Mass Flow Rate [kg/s] !TimeStep
894,1,WEST OUTSIDE AIR INLET NODE,System Node Temperature [C] !TimeStep
895,1,WEST OUTSIDE AIR INLET NODE,System Node Mass Flow Rate [kg/s] !TimeStep
896,1,WEST IEC SECONDARY AIR INLET NODE,System Node Temperature [C] !TimeStep
897,1,WEST IEC SECONDARY AIR INLET NODE,System Node Mass Flow Rate [kg/s] !TimeStep
898,1,WEST ZONE DEC OUTLET NODE,System Node Temperature [C] !TimeStep
899,1,WEST ZONE DEC OUTLET NODE,System Node Setpoint Temperature [C] !TimeStep
900,1,WEST ZONE IEC OUTLET NODE,System Node Temperature [C] !TimeStep
901,1,WEST ZONE IEC OUTLET NODE,System Node Setpoint Temperature [C] !TimeStep
902,1,WEST ZONE CCOIL AIR OUTLET NODE,System Node Temperature [C] !TimeStep
903,1,WEST ZONE CCOIL AIR OUTLET NODE,System Node Setpoint Temperature [C] !TimeStep
904,1,WEST AIR LOOP OUTLET NODE,System Node Temperature [C] !TimeStep
905,1,WEST AIR LOOP OUTLET NODE,System Node Setpoint Temperature [C] !TimeStep
906,1,EAST ZONE INLET NODE,System Node Temperature [C] !TimeStep
907,1,EAST ZONE INLET NODE,System Node Mass Flow Rate [kg/s] !TimeStep
908,1,EAST OUTSIDE AIR INLET NODE,System Node Temperature [C] !TimeStep
909,1,EAST OUTSIDE AIR INLET NODE,System Node Mass Flow Rate [kg/s] !TimeStep
910,1,EAST IEC SECONDARY AIR INLET NODE,System Node Temperature [C] !TimeStep
911,1,EAST IEC SECONDARY AIR INLET NODE,System Node Mass Flow Rate [kg/s] !TimeStep
912,1,EAST ZONE DEC OUTLET NODE,System Node Temperature [C] !TimeStep
913,1,EAST ZONE DEC OUTLET NODE,System Node Setpoint Temperature [C] !TimeStep
914,1,EAST ZONE IEC OUTLET NODE,System Node Temperature [C] !TimeStep
915,1,EAST ZONE IEC OUTLET NODE,System Node Setpoint Temperature [C] !TimeStep
916,1,EAST ZONE CCOIL AIR OUTLET NODE,System Node Temperature [C] !TimeStep
917,1,EAST ZONE CCOIL AIR OUTLET NODE,System Node Setpoint Temperature [C] !TimeStep
918,1,EAST AIR LOOP OUTLET NODE,System Node Temperature [C] !TimeStep
919,1,EAST AIR LOOP OUTLET NODE,System Node Setpoint Temperature [C] !TimeStep
920,1,WEST ZONE RETURN AIR NODE,System Node Temperature [C] !TimeStep
921,1,WEST ZONE RETURN AIR NODE,System Node Mass Flow Rate [kg/s] !TimeStep
922,1,WEST ZONE MIXED AIR NODE,System Node Temperature [C] !TimeStep
923,1,WEST ZONE MIXED AIR NODE,System Node Mass Flow Rate [kg/s] !TimeStep
924,1,WEST ZONE SUPPLY FAN OUTLET NODE,System Node Temperature [C] !TimeStep
925,1,EAST ZONE SUPPLY FAN OUTLET NODE,System Node Temperature [C] !TimeStep
926,1,WEST IEC SECONDARY AIR OUTLET NODE,System Node Temperature [C] !TimeStep
927,1,WEST IEC SECONDARY AIR OUTLET NODE,System Node Mass Flow Rate [kg/s] !TimeStep
End of Data Dictionary
1,WHOLEYEARDAY,  37.62,-122.40,  -8.00,   2.00
2,1, 1, 1, 0, 1, 0.00,15.00,Tuesday
6,6.825
239,1.030029886631446
312,22.16232061337632
313,31.547059707864624
349,21.88433850120376
350,30.9113791295724
599,0.0
600,0.0
603,0.0
604,0.0
645,0.10865764610524946
647,0.031845254605998549
649,0.3
650,0.4999999999999999
662,1.84400181107653
663,0.0
726,0.4458590370171325
727,0.0
730,4.285714285714285
731,0.0009414284872810901
734,0.0
735,0.0
737,0.0
739,0.0
741,0.0
743,0.0
892,15.554458714786846
893,3.3975811428571425
894,6.824999999999999
895,1.3792497128648067
896,6.824999999999999
897,0.2254603882531408
898,14.997720240775097
899,17.98874014285714
900,14.202468021345553
901,17.98874014285714
902,14.202468021345553
903,17.98874014285714
904,14.202468021345553
905,17.98874014285714
906,17.31183256774944
907,3.9397327907083845
908,6.824999999999999
909,0.5813505393453734
910,6.824999999999999
911,0.1343228804926302
912,19.634848609095095
913,27.50590128571428
914,19.373731192458416
915,27.50590128571428
916,19.373731192458416
917,27.50590128571428
918,19.373731192458416
919,27.50590128571428
920,22.40604029668952
921,3.3975811428571425
922,15.603076390197935
923,3.3975811428571425
924,15.97488980818373
925,19.634848609095095
926,8.153902782547862
927,0.2254603882531408
646,0.28571428571428567
648,0.14285714285714286
2,1, 1, 1, 0, 1,15.00,30.00,Tuesday
6,6.95
239,1.0834053262350028
312,18.492480934506255
313,43.19747182058038
349,24.857853291209204
350,30.69869073007259
599,0.0
600,0.0
603,0.0
604,0.0
645,0.18410815871606
647,0.12116256150742247
649,0.18666666666666666
650,0.5133333333333332
662,46.238161662810309
663,0.0
726,63.82372589012877
727,0.0
730,6.784966682648178
731,0.002285420290793194
734,7.475490842731731
735,0.006296172835837384
737,0.0
739,0.0
741,0.0
743,0.0
892,12.6018198142655
893,3.99432255802236
894,6.949999999999998
895,2.1880193083241799
896,6.949999999999998
897,0.8917214084361065
898,12.167284227388038
899,16.73409133333334
900,10.812913982015502
901,16.73409133333334
902,10.812913982015502
903,16.73409133333334
904,10.812913982015502
905,16.73409133333334
906,16.545548181964269
907,4.631436871327827
908,6.949999999999998
909,1.187362213860365
910,6.949999999999998
911,0.9682395060332434
912,18.166182338476849
913,24.509069666666674
914,17.143548955357724
915,24.509069666666674
916,17.143548955357724
917,24.509069666666674
918,17.143548955357724
919,24.509069666666674
920,18.791844491389914
921,3.99432255802236
922,13.096962951267635
923,3.99432255802236
924,13.452183045787214
925,19.919751759621563
926,9.310744110118547
927,0.8917214084361065
646,0.39999999999999999
648,0.2
2,1, 1, 1, 0, 1,30.00,45.00,Tuesday
6,7.075
239,1.0470112586189369
312,18.272854124196234
313,46.136851817054388
349,30.95649092280308
350,24.325700471055169
599,0.0
600,0.0
603,4708.386653370919
604,545.2709541949315
645,0.15338704896770734
647,0.19182296942898043
649,0.41999999999999995
650,0.46666666666666659
662,6.9714424972634438
663,0.0
726,432.67451458443795
727,0.0
730,8.0
731,0.0016727302244840552
734,8.843407972704004
735,0.005502205828315142
737,0.0
739,0.0
741,0.0
743,0.0
892,14.022724043348557
893,2.94224368950559
894,7.075
895,1.0292114115252087
896,7.075
897,0.4719037447592599
898,13.84233268339754
899,22.041857933333334
900,12.793657196786067
901,22.041857933333334
902,12.793657196786067
903,22.041857933333334
904,12.793657196786067
905,22.041857933333334
906,17.854866359504898
907,4.290073573658406
908,7.075
909,1.6561905755578493
910,7.075
911,2.7281605920578699
912,19.7046431696456
913,26.319522333333337
914,17.29328077958243
915,26.319522333333337
916,17.29328077958243
917,26.319522333333337
918,17.13061212359506
919,26.319522333333337
920,18.15841068706292
921,2.94224368950559
922,14.72717823363166
923,2.94224368950559
924,15.100328820553046
925,22.15218010593981
926,8.507364680015965
927,0.4719037447592599
646,0.26666666666666669
648,0.26666666666666669
2,1, 1, 1, 0, 1,45.00,60.00,Tuesday
6,7.2
239,1.0232217828419974
312,21.75324648894833
313,37.67565291509442
349,25.530352404165833
350,34.35561718968033
599,0.0
600,0.0
603,2413.6262076571875
604,74.33439014503793
645,0.08731919303629149
647,0.14936360153623408
649,0.27999999999999999
650,0.41999999999999995
662,9.434647187712237
663,0.0
726,217.50561926069327
727,0.0
730,2.0
731,0.0006665805363813248
734,8.0
735,0.003717346210316007
737,0.0
739,0.0
741,0.0
743,0.0
892,14.323640303072413
893,3.8660307561722568
894,7.200000000000003
895,1.9018629794438309
896,7.200000000000003
897,0.3890098966221829
898,14.399883747505461
899,17.853094066666665
900,13.79968029966638
901,17.853094066666665
902,13.79968029966638
903,17.853094066666665
904,13.79968029966638
905,17.853094066666665
906,15.856570680623165
907,3.7201732046611588
908,7.200000000000003
909,1.5389506924410724
910,7.200000000000003
911,1.5087945297711465
912,17.389279232952658
913,25.4780562
914,15.900033730839383
915,25.4780562
916,15.900033730839383
917,25.4780562
918,15.866224139992877
919,25.4780562
920,21.459294705192585
921,3.8660307561722568
922,14.532516093318128
923,3.8660307561722568
924,14.835162253447601
925,19.04031256294211
926,8.08983390686725
927,0.3890098966221829
646,0.2
648,0.26666666666666669
2,1, 1, 1, 0, 1, 0.00,60.00,Tuesday
133,11507.588735378022
134,7790.19504674569
135,1929.7783782123706
136,13936.849545599995
137,10219.334400000002
138,1929.7783782123706
139,21227.56216033608
173,2.850472329505801
174,13.692648080593319
175,5.532065497309063
176,0.5803728633364278
177,21.941897822787383
178,0.08293043910774627
179,1.0
180,0.0
181,0.0
182,0.0
183,0.0
184,0.0
185,1.0
186,0.0
187,0.0
188,0.0
189,0.0
190,0.0
191,-19.419627136663576
192,11507.588735378022
193,7790.19504674569
194,1929.7783782123706
195,13936.849545599995
196,10219.334400000002
197,1929.7783782123706
198,21227.56216033608
199,22788.55610036889
200,18641.35952839248
201,4142.991562876136
202,15546.354479999996
203,11399.520000000002
204,4142.991562876136
205,45572.9071916375
209,6.670080371356384
210,18.494017064416626
211,5.911972174147072
212,0.45969671841791429
213,26.055583197301237
214,0.10435141567056264
215,1.0
216,0.0
217,0.0
218,0.0
219,0.0
220,0.0
221,1.0
222,0.0
223,0.0
224,0.0
225,0.0
226,0.0
227,-19.540303281582085
228,22788.55610036889
229,18641.35952839248
230,4142.991562876136
231,15546.354479999996
232,11399.520000000002
233,4142.991562876136
234,45572.9071916375
315,20.0
316,23.0
352,20.0
353,23.0
387,0.0
388,0.0
422,0.0
423,0.0
525,0.25
526,0.0
527,0.0
528,0.0
529,0.0
530,0.0
531,0.75
532,0.0
533,0.0
534,0.0
535,0.0
536,0.0
537,0.0
538,0.0
539,0.0
540,0.0
314,4.0
351,4.0
386,0.0
421,0.0
517,66828.86935197358
518,3802.8208167312605
519,70631.69016870484
520,0.03333333333333333
521,0.016666666666666668
522,0.08333333333333333
523,0.016666666666666668
524,0.13333333333333334
541,0.5690905520250644
542,0.4
543,1.349297809801685
544,0.5931240954080019
545,0.4
546,1.030680734178451
605,1290.5604692180943
606,0.35070756488905827
607,1161.504422296285
608,4646017.689185139
639,3.5500445366393369
640,1502.8171320020238
641,0.35204909341792509
642,1352.5354188018212
643,5410141.675207284
644,4.145354110088944
766,1867.167974158815
788,10.196737190761486
789,9.93082890442893
790,2138.3284897935346
802,9.960352221044483
803,9.979835553931983
2,1, 1, 1, 0, 2, 0.00,15.00,Tuesday
6,7.2
239,1.0354689903924506
312,20.165653217246967
313,42.38543324366245
349,26.576933641911439
350,32.05157492627075
599,0.0
600,0.0
603,2192.82458719598
604,207.176853697534
645,0.1424175681769579
647,0.12650422019036806
649,0.27999999999999999
650,0.41999999999999995
662,17.106049451009583
663,0.0
726,217.22846208404219
727,0.0
730,6.0
731,0.0021229351989820557
734,7.671313379240939
735,0.002941629130698329
737,0.0
739,0.0
741,0.0
743,0.0
892,13.065909954327007
893,3.498048733333333
894,7.200000000000003
895,1.5771647988693976
896,7.200000000000003
897,0.5664898893885663
898,13.688352613425274
899,18.70636713333333
900,12.569955798959996
901,18.70636713333333
902,12.569955798959996
903,18.70636713333333
904,12.569955798959996
905,18.70636713333333
906,17.678357473734324
907,4.696621404661159
908,7.200000000000003
909,2.0720508383085054
910,7.200000000000003
911,1.4510064005853325
912,17.649572756876617
913,21.924999400000006
914,16.06001514960784
915,21.924999400000006
916,16.06001514960784
917,21.924999400000006
918,15.964972925118874
919,21.924999400000006
920,20.30118097851233
921,3.498048733333333
922,14.40026136115179
923,3.498048733333333
924,14.725536609759926
925,19.595125046823584
926,8.85124587904938
927,0.5664898893885663
646,0.26666666666666669
648,0.2
2,1, 1, 1, 0, 2,15.00,30.00,Tuesday
6,7.2
239,1.041617954514528
312,21.398408595491668
313,41.3228196905752
349,22.180755702173565
350,42.47422117662408
599,0.0
600,0.0
603,1547.5297665163628
604,25.491299982733108
645,0.09941785047547447
647,0.17460568695700127
649,0.41999999999999995
650,0.5133333333333332
662,14.318193600447195
663,0.0
726,119.48087737918692
727,0.0
730,4.871635978674482
731,0.0016788124222362957
734,10.0
735,0.005358781508902984
737,0.0
739,0.0
741,0.0
743,0.0
892,14.824130093852089
893,3.965825801850103
894,7.200000000000003
895,1.3573902472068702
896,7.200000000000003
897,0.5073733722549624
898,15.554500654393552
899,18.432919866666667
900,14.862820599185272
901,18.432919866666667
902,14.862820599185272
903,18.432919866666667
904,14.862820599185272
905,18.432919866666667
906,16.82014792960692
907,4.695671906991738
908,7.200000000000003
909,0.7455298943277872
910,7.200000000000003
911,1.3128508532205688
912,18.08160558581353
913,27.90044626666667
914,16.34255021726876
915,27.90044626666667
916,16.34255021726876
917,27.90044626666667
918,16.33840600513976