Program Version,EnergyPlus, Version 8.8.0-Unknown, YMD=2019.07.16 14:22
1,5,Environment Title[],Latitude[deg],Longitude[deg],Time Zone[],Elevation[m]
2,6,Day of Simulation[],Month[],Day of Month[],DST Indicator[1=yes 0=no],Hour[],StartMinute[],EndMinute[],DayType
3,3,Cumulative Day of Simulation[],Month[],Day of Month[],DST Indicator[1=yes 0=no],DayType  ! When Daily Report Variables Requested
4,2,Cumulative Days of Simulation[],Month[]  ! When Monthly Report Variables Requested
5,1,Cumulative Days of Simulation[] ! When Run Period Report Variables Requested
6,1,Environment,Site Outdoor Air Drybulb Temperature [C] !TimeStep
133,1,WESTDATACENTER_EQUIP,ITE CPU Electric Power [W] !Hourly
134,1,WESTDATACENTER_EQUIP,ITE Fan Electric Power [W] !Hourly
135,1,WESTDATACENTER_EQUIP,ITE UPS Electric Power [W] !Hourly
136,1,WESTDATACENTER_EQUIP,ITE CPU Electric Power at Design Inlet Conditions [W] !Hourly
137,1,WESTDATACENTER_EQUIP,ITE Fan Electric Power at Design Inlet Conditions [W] !Hourly
138,1,WESTDATACENTER_EQUIP,ITE UPS Heat Gain to Zone Rate [W] !Hourly
139,1,WESTDATACENTER_EQUIP,ITE Total Heat Gain to Zone Rate [W] !Hourly
173,1,WESTDATACENTER_EQUIP,ITE Standard Density Air Volume Flow Rate [m3/s] !Hourly
174,1,WESTDATACENTER_EQUIP,ITE Air Inlet Dry-Bulb Temperature [C] !Hourly
175,1,WESTDATACENTER_EQUIP,ITE Air Inlet Dewpoint Temperature [C] !Hourly
176,1,WESTDATACENTER_EQUIP,ITE Air Inlet Relative Humidity [%] !Hourly
177,1,WESTDATACENTER_EQUIP,ITE Air Outlet Dry-Bulb Temperature [C] !Hourly
178,1,WESTDATACENTER_EQUIP,ITE Supply Heat Index [] !Hourly
179,1,WESTDATACENTER_EQUIP,ITE Air Inlet Operating Range Exceeded Time [hr] !Hourly
180,1,WESTDATACENTER_EQUIP,ITE Air Inlet Dry-Bulb Temperature Above Operating Range Time [hr] !Hourly
181,1,WESTDATACENTER_EQUIP,ITE Air Inlet Dry-Bulb Temperature Below Operating Range Time [hr] !Hourly
182,1,WESTDATACENTER_EQUIP,ITE Air Inlet Dewpoint Temperature Above Operating Range Time [hr] !Hourly
183,1,WESTDATACENTER_EQUIP,ITE Air Inlet Dewpoint Temperature Below Operating Range Time [hr] !Hourly
184,1,WESTDATACENTER_EQUIP,ITE Air Inlet Relative Humidity Above Operating Range Time [hr] !Hourly
185,1,WESTDATACENTER_EQUIP,ITE Air Inlet Relative Humidity Below Operating Range Time [hr] !Hourly
186,1,WESTDATACENTER_EQUIP,ITE Air Inlet Dry-Bulb Temperature Difference Above Operating Range [deltaC] !Hourly
187,1,WESTDATACENTER_EQUIP,ITE Air Inlet Dry-Bulb Temperature Difference Below Operating Range [deltaC] !Hourly
188,1,WESTDATACENTER_EQUIP,ITE Air Inlet Dewpoint Temperature Difference Above Operating Range [deltaC] !Hourly
189,1,WESTDATACENTER_EQUIP,ITE Air Inlet Dewpoint Temperature Difference Below Operating Range [deltaC] !Hourly
190,1,WESTDATACENTER_EQUIP,ITE Air Inlet Relative Humidity Difference Above Operating Range [%] !Hourly
191,1,WESTDATACENTER_EQUIP,ITE Air Inlet Relative Humidity Difference Below Operating Range [%] !Hourly
192,1,WEST ZONE,Zone ITE CPU Electric Power [W] !Hourly
193,1,WEST ZONE,Zone ITE Fan Electric Power [W] !Hourly
194,1,WEST ZONE,Zone ITE UPS Electric Power [W] !Hourly
195,1,WEST ZONE,Zone ITE CPU Electric Power at Design Inlet Conditions [W] !Hourly
196,1,WEST ZONE,Zone ITE Fan Electric Power at Design Inlet Conditions [W] !Hourly
197,1,WEST ZONE,Zone ITE UPS Heat Gain to Zone Rate [W] !Hourly
198,1,WEST ZONE,Zone ITE Total Heat Gain to Zone Rate [W] !Hourly
199,1,EASTDATACENTER_EQUIP,ITE CPU Electric Power [W] !Hourly
200,1,EASTDATACENTER_EQUIP,ITE Fan Electric Power [W] !Hourly
201,1,EASTDATACENTER_EQUIP,ITE UPS Electric Power [W] !Hourly
202,1,EASTDATACENTER_EQUIP,ITE CPU Electric Power at Design Inlet Conditions [W] !Hourly
203,1,EASTDATACENTER_EQUIP,ITE Fan Electric Power at Design Inlet Conditions [W] !Hourly
204,1,EASTDATACENTER_EQUIP,ITE UPS Heat Gain to Zone Rate [W] !Hourly
205,1,EASTDATACENTER_EQUIP,ITE Total Heat Gain to Zone Rate [W] !Hourly
209,1,EASTDATACENTER_EQUIP,ITE Standard Density Air Volume Flow Rate [m3/s] !Hourly
210,1,EASTDATACENTER_EQUIP,ITE Air Inlet Dry-Bulb Temperature [C] !Hourly
211,1,EASTDATACENTER_EQUIP,ITE Air Inlet Dewpoint Temperature [C] !Hourly
212,1,EASTDATACENTER_EQUIP,ITE Air Inlet Relative Humidity [%] !Hourly
213,1,EASTDATACENTER_EQUIP,ITE Air Outlet Dry-Bulb Temperature [C] !Hourly
214,1,EASTDATACENTER_EQUIP,ITE Supply Heat Index [] !Hourly
215,1,EASTDATACENTER_EQUIP,ITE Air Inlet Operating Range Exceeded Time [hr] !Hourly
216,1,EASTDATACENTER_EQUIP,ITE Air Inlet Dry-Bulb Temperature Above Operating Range Time [hr] !Hourly
217,1,EASTDATACENTER_EQUIP,ITE Air Inlet Dry-Bulb Temperature Below Operating Range Time [hr] !Hourly
218,1,EASTDATACENTER_EQUIP,ITE Air Inlet Dewpoint Temperature Above Operating Range Time [hr] !Hourly
219,1,EASTDATACENTER_EQUIP,ITE Air Inlet Dewpoint Temperature Below Operating Range Time [hr] !Hourly
220,1,EASTDATACENTER_EQUIP,ITE Air Inlet Relative Humidity Above Operating Range Time [hr] !Hourly
221,1,EASTDATACENTER_EQUIP,ITE Air Inlet Relative Humidity Below Operating Range Time [hr] !Hourly
222,1,EASTDATACENTER_EQUIP,ITE Air Inlet Dry-Bulb Temperature Difference Above Operating Range [deltaC] !Hourly
223,1,EASTDATACENTER_EQUIP,ITE Air Inlet Dry-Bulb Temperature Difference Below Operating Range [deltaC] !Hourly
224,1,EASTDATACENTER_EQUIP,ITE Air Inlet Dewpoint Temperature Difference Above Operating Range [deltaC] !Hourly
225,1,EASTDATACENTER_EQUIP,ITE Air Inlet Dewpoint Temperature Difference Below Operating Range [deltaC] !Hourly
226,1,EASTDATACENTER_EQUIP,ITE Air Inlet Relative Humidity Difference Above Operating Range [%] !Hourly
227,1,EASTDATACENTER_EQUIP,ITE Air Inlet Relative Humidity Difference Below Operating Range [%] !Hourly
228,1,EAST ZONE,Zone ITE CPU Electric Power [W] !Hourly
229,1,EAST ZONE,Zone ITE Fan Electric Power [W] !Hourly
230,1,EAST ZONE,Zone ITE UPS Electric Power [W] !Hourly
231,1,EAST ZONE,Zone ITE CPU Electric Power at Design Inlet Conditions [W] !Hourly
232,1,EAST ZONE,Zone ITE Fan Electric Power at Design Inlet Conditions [W] !Hourly
233,1,EAST ZONE,Zone ITE UPS Heat Gain to Zone Rate [W] !Hourly
234,1,EAST ZONE,Zone ITE Total Heat Gain to Zone Rate [W] !Hourly
239,1,EMS,Power Utilization Effectiveness [] !TimeStep
312,1,WEST ZONE,Zone Air Temperature [C] !TimeStep
313,1,WEST ZONE,Zone Air Relative Humidity [%] !TimeStep
314,1,WEST ZONE,Zone Thermostat Control Type [] !Hourly
315,1,WEST ZONE,Zone Thermostat Heating Setpoint Temperature [C] !Hourly
316,1,WEST ZONE,Zone Thermostat Cooling Setpoint Temperature [C] !Hourly
349,1,EAST ZONE,Zone Air Temperature [C] !TimeStep
350,1,EAST ZONE,Zone Air Relative Humidity [%] !TimeStep
351,1,EAST ZONE,Zone Thermostat Control Type [] !Hourly
352,1,EAST ZONE,Zone Thermostat Heating Setpoint Temperature [C] !Hourly
353,1,EAST ZONE,Zone Thermostat Cooling Setpoint Temperature [C] !Hourly
386,1,WEST PLENUM,Zone Thermostat Control Type [] !Hourly
387,1,WEST PLENUM,Zone Thermostat Heating Setpoint Temperature [C] !Hourly
388,1,WEST PLENUM,Zone Thermostat Cooling Setpoint Temperature [C] !Hourly
421,1,EAST PLENUM,Zone Thermostat Control Type [] !Hourly
422,1,EAST PLENUM,Zone Thermostat Heating Setpoint Temperature [C] !Hourly
423,1,EAST PLENUM,Zone Thermostat Cooling Setpoint Temperature [C] !Hourly
517,1,Whole Building,Facility Total Building Electric Demand Power [W] !Hourly
518,1,Whole Building,Facility Total HVAC Electric Demand Power [W] !Hourly
519,1,Whole Building,Facility Total Electric Demand Power [W] !Hourly
520,1,WEST ZONE,Zone Oscillating Temperatures Time [hr] !Hourly
521,1,EAST ZONE,Zone Oscillating Temperatures Time [hr] !Hourly
522,1,WEST PLENUM,Zone Oscillating Temperatures Time [hr] !Hourly
523,1,EAST PLENUM,Zone Oscillating Temperatures Time [hr] !Hourly
524,1,Facility,Facility Any Zone Oscillating Temperatures Time [hr] !Hourly
525,1,WEST ZONE,Zone Heating Setpoint Not Met Time [hr] !Hourly
526,1,WEST ZONE,Zone Heating Setpoint Not Met While Occupied Time [hr] !Hourly
527,1,WEST ZONE,Zone Cooling Setpoint Not Met Time [hr] !Hourly
528,1,WEST ZONE,Zone Cooling Setpoint Not Met While Occupied Time [hr] !Hourly
529,1,EAST ZONE,Zone Heating Setpoint Not Met Time [hr] !Hourly
530,1,EAST ZONE,Zone Heating Setpoint Not Met While Occupied Time [hr] !Hourly
531,1,EAST ZONE,Zone Cooling Setpoint Not Met Time [hr] !Hourly
532,1,EAST ZONE,Zone Cooling Setpoint Not Met While Occupied Time [hr] !Hourly
533,1,WEST PLENUM,Zone Heating Setpoint Not Met Time [hr] !Hourly
534,1,WEST PLENUM,Zone Heating Setpoint Not Met While Occupied Time [hr] !Hourly
535,1,WEST PLENUM,Zone Cooling Setpoint Not Met Time [hr] !Hourly
536,1,WEST PLENUM,Zone Cooling Setpoint Not Met While Occupied Time [hr] !Hourly
537,1,EAST PLENUM,Zone Heating Setpoint Not Met Time [hr] !Hourly
538,1,EAST PLENUM,Zone Heating Setpoint Not Met While Occupied Time [hr] !Hourly
539,1,EAST PLENUM,Zone Cooling Setpoint Not Met Time [hr] !Hourly
540,1,EAST PLENUM,Zone Cooling Setpoint Not Met While Occupied Time [hr] !Hourly
541,1,WEST ZONE VAV SYSTEM,Zone Air Terminal VAV Damper Position [] !Hourly
542,1,WEST ZONE VAV SYSTEM,Zone Air Terminal Minimum Air Flow Fraction [] !Hourly
543,1,WEST ZONE VAV SYSTEM,Zone Air Terminal Outdoor Air Volume Flow Rate [m3/s] !Hourly
544,1,EAST ZONE VAV SYSTEM,Zone Air Terminal VAV Damper Position [] !Hourly
545,1,EAST ZONE VAV SYSTEM,Zone Air Terminal Minimum Air Flow Fraction [] !Hourly
546,1,EAST ZONE VAV SYSTEM,Zone Air Terminal Outdoor Air Volume Flow Rate [m3/s] !Hourly
599,1,WEST ZONE CW COOLING COIL,Cooling Coil Total Cooling Rate [W] !TimeStep
600,1,WEST ZONE CW COOLING COIL,Cooling Coil Sensible Cooling Rate [W] !TimeStep
603,1,EAST ZONE CW COOLING COIL,Cooling Coil Total Cooling Rate [W] !TimeStep
604,1,EAST ZONE CW COOLING COIL,Cooling Coil Sensible Cooling Rate [W] !TimeStep
605,1,WEST ZONE SUPPLY FAN,Fan Electric Power [W] !Hourly
606,1,WEST ZONE SUPPLY FAN,Fan Rise in Air Temperature [deltaC] !Hourly
607,1,WEST ZONE SUPPLY FAN,Fan Heat Gain to Air [W] !Hourly
608,1,WEST ZONE SUPPLY FAN,Fan Electric Energy [J] !Hourly
639,1,WEST ZONE SUPPLY FAN,Fan Air Mass Flow Rate [kg/s] !Hourly
640,1,EAST ZONE SUPPLY FAN,Fan Electric Power [W] !Hourly
641,1,EAST ZONE SUPPLY FAN,Fan Rise in Air Temperature [deltaC] !Hourly
642,1,EAST ZONE SUPPLY FAN,Fan Heat Gain to Air [W] !Hourly
643,1,EAST ZONE SUPPLY FAN,Fan Electric Energy [J] !Hourly
644,1,EAST ZONE SUPPLY FAN,Fan Air Mass Flow Rate [kg/s] !Hourly
645,1,WEST DATA CENTER IEC,Evaporative Cooler Total Stage Effectiveness [] !TimeStep
646,1,WEST DATA CENTER IEC,Evaporative Cooler Operating Mode Status [] !TimeStep
647,1,EAST DATA CENTER IEC,Evaporative Cooler Total Stage Effectiveness [] !TimeStep
648,1,EAST DATA CENTER IEC,Evaporative Cooler Operating Mode Status [] !TimeStep
649,1,WEST DATA CENTER DEC,Evaporative Cooler Stage Effectiveness [] !TimeStep
650,1,EAST DATA CENTER DEC,Evaporative Cooler Stage Effectiveness [] !TimeStep
662,1,WEST DATA CENTER IEC,Evaporative Cooler Electric Power [W] !TimeStep
663,1,WEST DATA CENTER IEC,Evaporative Cooler Water Volume [m3] !TimeStep
726,1,EAST DATA CENTER IEC,Evaporative Cooler Electric Power [W] !TimeStep
727,1,EAST DATA CENTER IEC,Evaporative Cooler Water Volume [m3] !TimeStep
730,1,WEST DATA CENTER DEC,Evaporative Cooler Electric Power [W] !TimeStep
731,1,WEST DATA CENTER DEC,Evaporative Cooler Water Volume [m3] !TimeStep
734,1,EAST DATA CENTER DEC,Evaporative Cooler Electric Power [W] !TimeStep
735,1,EAST DATA CENTER DEC,Evaporative Cooler Water Volume [m3] !TimeStep
737,1,WEST DX COOLING COIL,Cooling Coil Total Cooling Rate [W] !TimeStep
739,1,WEST DX COOLING COIL,Cooling Coil Sensible Cooling Rate [W] !TimeStep
741,1,EAST DX COOLING COIL,Cooling Coil Total Cooling Rate [W] !TimeStep
743,1,EAST DX COOLING COIL,Cooling Coil Sensible Cooling Rate [W] !TimeStep
766,1,CHILLER,Chiller Evaporator Cooling Rate [W] !Hourly
788,1,CHILLER,Chiller Evaporator Inlet Temperature [C] !Hourly
789,1,CHILLER,Chiller Evaporator Outlet Temperature [C] !Hourly
790,1,CHILLER,Chiller Condenser Heat Transfer Rate [W] !Hourly
802,1,CHILLER,Chiller Condenser Inlet Temperature [C] !Hourly
803,1,CHILLER,Chiller Condenser Outlet Temperature [C] !Hourly
892,1,WEST ZONE INLET NODE,System Node Temperature [C] !TimeStep
893,1,WEST ZONE INLET NODE,System Node Mass Flow Rate [kg/s] !TimeStep
894,1,WEST OUTSIDE AIR INLET NODE,System Node Temperature [C] !TimeStep
895,1,WEST OUTSIDE AIR INLET NODE,System Node Mass Flow Rate [kg/s] !TimeStep
896,1,WEST IEC SECONDARY AIR INLET NODE,System Node Temperature [C] !TimeStep
897,1,WEST IEC SECONDARY AIR INLET NODE,System Node Mass Flow Rate [kg/s] !TimeStep
898,1,WEST ZONE DEC OUTLET NODE,System Node Temperature [C] !TimeStep
899,1,WEST ZONE DEC OUTLET NODE,System Node Setpoint Temperature [C] !TimeStep
900,1,WEST ZONE IEC OUTLET NODE,System Node Temperature [C] !TimeStep
901,1,WEST ZONE IEC OUTLET NODE,System Node Setpoint Temperature [C] !TimeStep
902,1,WEST ZONE CCOIL AIR OUTLET NODE,System Node Temperature [C] !TimeStep
903,1,WEST ZONE CCOIL AIR OUTLET NODE,System Node Setpoint Temperature [C] !TimeStep
904,1,WEST AIR LOOP OUTLET NODE,System Node Temperature [C] !TimeStep
905,1,WEST AIR LOOP OUTLET NODE,System Node Setpoint Temperature [C] !TimeStep
906,1,EAST ZONE INLET NODE,System Node Temperature [C] !TimeStep
907,1,EAST ZONE INLET NODE,System Node Mass Flow Rate [kg/s] !TimeStep
908,1,EAST OUTSIDE AIR INLET NODE,System Node Temperature [C] !TimeStep
909,1,EAST OUTSIDE AIR INLET NODE,System Node Mass Flow Rate [kg/s] !TimeStep
910,1,EAST IEC SECONDARY AIR INLET NODE,System Node Temperature [C] !TimeStep
911,1,EAST IEC SECONDARY AIR INLET NODE,System Node Mass Flow Rate [kg/s] !TimeStep
912,1,EAST ZONE DEC OUTLET NODE,System Node Temperature [C] !TimeStep
913,1,EAST ZONE DEC OUTLET NODE,System Node Setpoint Temperature [C] !TimeStep
914,1,EAST ZONE IEC OUTLET NODE,System Node Temperature [C] !TimeStep
915,1,EAST ZONE IEC OUTLET NODE,System Node Setpoint Temperature [C] !TimeStep
916,1,EAST ZONE CCOIL AIR OUTLET NODE,System Node Temperature [C] !TimeStep
917,1,EAST ZONE CCOIL AIR OUTLET NODE,System Node Setpoint Temperature [C] !TimeStep
918,1,EAST AIR LOOP OUTLET NODE,System Node Temperature [C] !TimeStep
919,1,EAST AIR LOOP OUTLET NODE,System Node Setpoint Temperature [C] !TimeStep
920,1,WEST ZONE RETURN AIR NODE,System Node Temperature [C] !TimeStep
921,1,WEST ZONE RETURN AIR NODE,System Node Mass Flow Rate [kg/s] !TimeStep
922,1,WEST ZONE MIXED AIR NODE,System Node Temperature [C] !TimeStep
923,1,WEST ZONE MIXED AIR NODE,System Node Mass Flow Rate [kg/s] !TimeStep
924,1,WEST ZONE SUPPLY FAN OUTLET NODE,System Node Temperature [C] !TimeStep
925,1,EAST ZONE SUPPLY FAN OUTLET NODE,System Node Temperature [C] !TimeStep
926,1,WEST IEC SECONDARY AIR OUTLET NODE,System Node Temperature [C] !TimeStep
927,1,WEST IEC SECONDARY AIR OUTLET NODE,System Node Mass Flow Rate [kg/s] !TimeStep
End of Data Dictionary
1,WHOLEYEARDAY,  37.62,-122.40,  -8.00,   2.00
2,1, 1, 1, 0, 1, 0.00,15.00,Tuesday
6,6.825
239,1.0300298866314462
312,22.595816619775559
313,31.86310777313606
349,22.642946289744555
350,30.595588577787795
599,0.0
600,0.0
603,0.0
604,0.0
645,0.15829232618844814
647,0.03303932523815509
649,0.41999999999999995
650,0.6533333333333331
662,6.8364148445519909
663,0.0
726,4.164414947906559
727,0.0
730,7.03424204761433
731,0.002156801693508608
734,2.0
735,0.0013529785383641039
737,0.0
739,0.0
741,0.0
743,0.0
892,15.646332026114646
893,2.5292308666666667
894,6.825
895,0.6548476691750093
896,6.825
897,0.508373216825667
898,16.086084596679574
899,20.952492666666666
900,14.707443754684432
901,20.952492666666666
902,14.707443754684432
903,20.952492666666666
904,14.707443754684432
905,20.952492666666666
906,19.925408848555028
907,6.162749085311303
908,6.825
909,0.34308091913118768
910,6.825
911,0.19510441968597429
912,21.55371023208065
913,35.577461799999998
914,21.237606119563769
915,35.577461799999998
916,21.237606119563769
917,35.577461799999998
918,21.237606119563769
919,35.577461799999998
920,22.624235331712958
921,2.5292308666666667
922,17.22062409228044
923,2.5292308666666667
924,17.604471754167404
925,22.058585487427366
926,8.608578816430223
927,0.508373216825667
646,0.26666666666666669
648,0.06666666666666667
2,1, 1, 1, 0, 1,15.00,30.00,Tuesday
6,6.95
239,1.0816761518993059
312,22.31175713426318
313,35.77336978852004
349,30.449953194104823
350,21.73656825888973
599,0.0
600,0.0
603,0.0
604,0.0
645,0.10574716696785863
647,0.013085266996563098
649,0.3733333333333333
650,0.6999999999999997
662,5.531163413663101
663,0.0
726,0.6293581770341309
727,0.0
730,7.799077737548385
731,0.0019083880541254568
734,2.481733422786122
735,0.0030439913935793167
737,0.0
739,0.0
741,0.0
743,0.0
892,14.383539344544197
893,2.9400866666666669
894,6.9499999999999979
895,1.3748057796016514
896,6.9499999999999979
897,0.38004508450806187
898,14.499676743959935
899,16.651992733333335
900,13.75413642390626
901,16.651992733333335
902,13.75413642390626
903,16.651992733333335
904,13.75413642390626
905,16.651992733333335
906,25.07098805935836
907,6.227321982980723
908,6.9499999999999979
909,0.49374476376584489
910,6.9499999999999979
911,0.09411626890512964
912,27.425393819381644
913,36.0257668
914,27.24726046486177
915,36.0257668
916,27.24726046486177
917,36.0257668
918,27.24726046486177
919,36.0257668
920,22.254891436417297
921,2.9400866666666669
922,15.425678658277276
923,2.9400866666666669
924,15.800760578463525
925,28.283390773596766
926,8.019857766796463
927,0.38004508450806187
646,0.2
648,0.06666666666666667
2,1, 1, 1, 0, 1,30.00,45.00,Tuesday
6,7.075
239,1.0374872370238715
312,28.509961392607875
313,26.467156809222915
349,36.91161013617514
350,17.449520523925167
599,0.0
600,0.0
603,4271.859922716126
604,594.1264253543739
645,0.16207138379368736
647,0.047955742357245107
649,0.41999999999999995
650,0.6066666666666665
662,106.63168491164589
663,0.0
726,108.3547585160584
727,0.0
730,10.0
731,0.0027893243454246228
734,5.0523594855917459
735,0.006991286600593359
737,0.0
739,0.0
741,0.0
743,0.0
892,17.61593219222381
893,2.5120684666666666
894,7.075
895,1.0148385743131153
896,7.075
897,1.0157774431380858
898,17.35591814143068
899,20.50157373333333
900,15.86062747049303
901,20.50157373333333
902,15.86062747049303
903,20.50157373333333
904,15.86062747049303
905,20.50157373333333
906,27.749701559892374
907,6.556350658969708
908,7.075
909,0.8525342638710104
910,7.075
911,0.682491913680772
912,30.70963028388128
913,35.667847333333337
914,29.923115760644593
915,35.667847333333337
916,29.923115760644593
917,35.667847333333337
918,29.840219440099973
919,35.667847333333337
920,28.05430828573888
921,2.5120684666666666
922,19.257955003968264
923,2.5120684666666666
924,19.65201574183634
925,32.78968333335828
926,9.485799207050289
927,1.0157774431380858
646,0.3333333333333333
648,0.06666666666666667
2,1, 1, 1, 0, 1,45.00,60.00,Tuesday
6,7.2
239,1.024159788746921
312,25.82361778361285
313,32.776107841048659
349,40.665670531853077
350,16.230495591878048
599,0.0
600,0.0
603,10.562940075811472
604,10.56294007581029
645,0.20395690742728946
647,0.0675507678345782
649,0.32666666666666668
650,0.46666666666666659
662,200.40574729848738
663,0.0
726,7.275863132279
727,0.0
730,8.0
731,0.003187978391551991
734,5.134581122259624
735,0.006436963151509851
737,2092.9378565382794
739,113.61504042282368
741,0.0
743,0.0
892,14.308117706486387
893,2.2462894
894,7.200000000000003
895,0.932914392775751
896,7.200000000000003
897,1.6010847544842173
898,15.630608127964225
899,19.244230666666668
900,13.586769915756836
901,19.244230666666668
902,13.547382669716047
903,19.244230666666668
904,13.547382669716047
905,19.244230666666668
906,28.278285810710348
907,6.3043566806501449
908,7.200000000000003
909,1.4014212314519832
910,7.200000000000003
911,0.5001233413443867
912,31.68951237081774
913,33.79255826666667
914,29.715793810288678
915,33.79255826666667
916,29.715793810288678
917,33.79255826666667
918,29.71416372170852
919,33.79255826666667
920,26.003702485107835
921,2.2462894
922,17.07493688823854
923,2.2462894
924,17.493580077212834
925,33.48680815186423
926,9.042838849517147
927,1.6010847544842173
646,0.3333333333333333
648,0.26666666666666669
2,1, 1, 1, 0, 1, 0.00,60.00,Tuesday
133,15555.630225524998
134,11838.034144937757
135,2739.366437046275
136,13936.849545599995
137,10219.334400000002
138,2739.366437046275
139,30133.03080750903
173,4.296913812992395
174,15.871176952303044
175,6.89691592497363
176,0.5608107465492459
177,23.524435419678676
178,0.10935102862660719
179,1.0
180,0.0
181,0.0
182,0.0
183,0.0
184,0.0
185,1.0
186,0.0
187,0.0
188,0.0
189,0.0
190,0.0
191,-19.439189253450754
192,15555.630225524998
193,11838.034144937757
194,2739.366437046275
195,13936.849545599995
196,10219.334400000002
197,2739.366437046275
198,30133.03080750903
199,34199.148954021155
200,30051.381880927118
201,6425.053083494826
202,15546.354479999996
203,11399.520000000002
204,6425.053083494826
205,70675.5839184431
209,10.513571648431608
210,23.999084202238266
211,6.591377258703612
212,0.3442083390164882
213,31.41529108479641
214,0.08217638716838628
215,1.0
216,0.0
217,0.0
218,0.0
219,0.0
220,0.0
221,1.0
222,0.0
223,0.0
224,0.0
225,0.0
226,0.0
227,-19.65579166098351
228,34199.148954021155
229,30051.381880927118
230,6425.053083494826
231,15546.354479999996
232,11399.520000000002
233,6425.053083494826
234,70675.5839184431
315,20.0
316,23.0
352,20.0
353,23.0
387,0.0
388,0.0
422,0.0
423,0.0
525,0.0
526,0.0
527,0.5
528,0.0
529,0.0
530,0.0
531,0.75
532,0.0
533,0.0
534,0.0
535,0.0
536,0.0
537,0.0
538,0.0
539,0.0
540,0.0
314,4.0
351,4.0
386,0.0
421,0.0
517,100837.01472595212
518,3966.551038377077
519,104803.56576432919
520,0.0
521,0.0
522,0.05
523,0.1
524,0.15000000000000003
541,0.4098873534717078
542,0.4
543,0.8258575186374003
544,0.9032307436106644
545,0.4
546,0.6417611397000048
605,1044.60914000404
606,0.39290837722889507
607,940.1482260036356
608,3760592.904014543
639,2.5569188499999999
640,2154.61320928211
641,0.3024796115842518
642,1939.1518883538993
643,7756607.553415594
644,6.31269460197797
766,1081.0985284775356
788,10.205221762267103
789,10.04491767221366
790,1238.7305381245324
802,9.95645808064659
803,9.967744660293193
2,1, 1, 1, 0, 2, 0.00,15.00,Tuesday
6,7.2
239,1.0239062926555094
312,28.50573881098233
313,29.546803305745998
349,41.04377196241712
350,16.72014514336231
599,0.0
600,0.0
603,357.9666120529624
604,357.96661205296496
645,0.20603819428698537
647,0.05986837090597854
649,0.3733333333333333
650,0.04666666666666666
662,108.17020496068635
663,0.0
726,108.3547585160584
727,0.0
730,9.285317186215483
731,0.0030043847934853489
734,0.0
735,0.0
737,941.9194059295506
739,78.07696784269943
741,0.0
743,0.0
892,14.261117933686697
893,2.479754133333334
894,7.200000000000003
895,1.301290466386857
896,7.200000000000003
897,1.1302507751314779
898,14.813066513189663
899,17.821678
900,13.068891088880534
901,17.821678
902,13.025124065003454
903,17.821678
904,13.025124065003454
905,17.821678
906,33.902693663666479
907,6.2536368543085489
908,7.200000000000003
909,0.8973083749222355
910,7.200000000000003
911,0.7085919292511578
912,36.89158373796332
913,37.025040133333337
914,35.171800074449489
915,37.025040133333337
916,35.171800074449489
917,37.025040133333337
918,35.107154541611468
919,37.025040133333337
920,28.212631771510674
921,2.479754133333334
922,16.269322273956399
923,2.4797541333333337
924,16.66617361003197
925,36.89158373796332
926,9.038515121054783
927,1.1302507751314779
646,0.4666666666666666
648,0.2
2,1, 1, 1, 0, 2,15.00,30.00,Tuesday
6,7.2
239,1.0291578024551079
312,28.063482761139566
313,30.973673304877225
349,36.686741203725379
350,19.47646247907637
599,0.0
600,0.0
603,0.0
604,0.0
645,0.17028909373910643
647,0.05162643410768682
649,0.41999999999999995
650,0.5133333333333332
662,3.0465414769040639
663,0.0
726,12.999143023188794
727,0.0
730,12.942640296235107
731,0.003254080910932298
734,0.10291609868761609
735,0.00016188024853384247
737,0.0
739,0.0
741,0.0
743,0.0
892,16.191379854066857
893,2.4287065333333337
894,7.200000000000003
895,1.2835574569572517
896,7.200000000000003
897,0.40885619317383606
898,16.4004393621235
899,18.591389266666665
900,14.650038274676384
901,18.591389266666665
902,14.650038274676384
903,18.591389266666665
904,14.650038274676384
905,18.591389266666665
906,32.625863347490618
907,6.97193169929478
908,7.200000000000003
909,0.4017864813412961
910,7.200000000000003
911,0.4301403711371288
912,35.32434754916239
913,37.3831724
914,33.68429505222782
915,37.3831724
916,33.68429505222782
917,37.3831724
918,33.68429505222782
919,37.3831724
920,28.411315471711537
921,2.4287065333333337
922,19.00842768591589