Program Version,EnergyPlus, Version 8.8.0-Unknown, YMD=2019.07.16 14:15
1,5,Environment Title[],Latitude[deg],Longitude[deg],Time Zone[],Elevation[m]
2,6,Day of Simulation[],Month[],Day of Month[],DST Indicator[1=yes 0=no],Hour[],StartMinute[],EndMinute[],DayType
3,3,Cumulative Day of Simulation[],Month[],Day of Month[],DST Indicator[1=yes 0=no],DayType  ! When Daily Report Variables Requested
4,2,Cumulative Days of Simulation[],Month[]  ! When Monthly Report Variables Requested
5,1,Cumulative Days of Simulation[] ! When Run Period Report Variables Requested
6,1,Environment,Site Outdoor Air Drybulb Temperature [C] !TimeStep
133,1,WESTDATACENTER_EQUIP,ITE CPU Electric Power [W] !Hourly
134,1,WESTDATACENTER_EQUIP,ITE Fan Electric Power [W] !Hourly
135,1,WESTDATACENTER_EQUIP,ITE UPS Electric Power [W] !Hourly
136,1,WESTDATACENTER_EQUIP,ITE CPU Electric Power at Design Inlet Conditions [W] !Hourly
137,1,WESTDATACENTER_EQUIP,ITE Fan Electric Power at Design Inlet Conditions [W] !Hourly
138,1,WESTDATACENTER_EQUIP,ITE UPS Heat Gain to Zone Rate [W] !Hourly
139,1,WESTDATACENTER_EQUIP,ITE Total Heat Gain to Zone Rate [W] !Hourly
173,1,WESTDATACENTER_EQUIP,ITE Standard Density Air Volume Flow Rate [m3/s] !Hourly
174,1,WESTDATACENTER_EQUIP,ITE Air Inlet Dry-Bulb Temperature [C] !Hourly
175,1,WESTDATACENTER_EQUIP,ITE Air Inlet Dewpoint Temperature [C] !Hourly
176,1,WESTDATACENTER_EQUIP,ITE Air Inlet Relative Humidity [%] !Hourly
177,1,WESTDATACENTER_EQUIP,ITE Air Outlet Dry-Bulb Temperature [C] !Hourly
178,1,WESTDATACENTER_EQUIP,ITE Supply Heat Index [] !Hourly
179,1,WESTDATACENTER_EQUIP,ITE Air Inlet Operating Range Exceeded Time [hr] !Hourly
180,1,WESTDATACENTER_EQUIP,ITE Air Inlet Dry-Bulb Temperature Above Operating Range Time [hr] !Hourly
181,1,WESTDATACENTER_EQUIP,ITE Air Inlet Dry-Bulb Temperature Below Operating Range Time [hr] !Hourly
182,1,WESTDATACENTER_EQUIP,ITE Air Inlet Dewpoint Temperature Above Operating Range Time [hr] !Hourly
183,1,WESTDATACENTER_EQUIP,ITE Air Inlet Dewpoint Temperature Below Operating Range Time [hr] !Hourly
184,1,WESTDATACENTER_EQUIP,ITE Air Inlet Relative Humidity Above Operating Range Time [hr] !Hourly
185,1,WESTDATACENTER_EQUIP,ITE Air Inlet Relative Humidity Below Operating Range Time [hr] !Hourly
186,1,WESTDATACENTER_EQUIP,ITE Air Inlet Dry-Bulb Temperature Difference Above Operating Range [deltaC] !Hourly
187,1,WESTDATACENTER_EQUIP,ITE Air Inlet Dry-Bulb Temperature Difference Below Operating Range [deltaC] !Hourly
188,1,WESTDATACENTER_EQUIP,ITE Air Inlet Dewpoint Temperature Difference Above Operating Range [deltaC] !Hourly
189,1,WESTDATACENTER_EQUIP,ITE Air Inlet Dewpoint Temperature Difference Below Operating Range [deltaC] !Hourly
190,1,WESTDATACENTER_EQUIP,ITE Air Inlet Relative Humidity Difference Above Operating Range [%] !Hourly
191,1,WESTDATACENTER_EQUIP,ITE Air Inlet Relative Humidity Difference Below Operating Range [%] !Hourly
192,1,WEST ZONE,Zone ITE CPU Electric Power [W] !Hourly
193,1,WEST ZONE,Zone ITE Fan Electric Power [W] !Hourly
194,1,WEST ZONE,Zone ITE UPS Electric Power [W] !Hourly
195,1,WEST ZONE,Zone ITE CPU Electric Power at Design Inlet Conditions [W] !Hourly
196,1,WEST ZONE,Zone ITE Fan Electric Power at Design Inlet Conditions [W] !Hourly
197,1,WEST ZONE,Zone ITE UPS Heat Gain to Zone Rate [W] !Hourly
198,1,WEST ZONE,Zone ITE Total Heat Gain to Zone Rate [W] !Hourly
199,1,EASTDATACENTER_EQUIP,ITE CPU Electric Power [W] !Hourly
200,1,EASTDATACENTER_EQUIP,ITE Fan Electric Power [W] !Hourly
201,1,EASTDATACENTER_EQUIP,ITE UPS Electric Power [W] !Hourly
202,1,EASTDATACENTER_EQUIP,ITE CPU Electric Power at Design Inlet Conditions [W] !Hourly
203,1,EASTDATACENTER_EQUIP,ITE Fan Electric Power at Design Inlet Conditions [W] !Hourly
204,1,EASTDATACENTER_EQUIP,ITE UPS Heat Gain to Zone Rate [W] !Hourly
205,1,EASTDATACENTER_EQUIP,ITE Total Heat Gain to Zone Rate [W] !Hourly
209,1,EASTDATACENTER_EQUIP,ITE Standard Density Air Volume Flow Rate [m3/s] !Hourly
210,1,EASTDATACENTER_EQUIP,ITE Air Inlet Dry-Bulb Temperature [C] !Hourly
211,1,EASTDATACENTER_EQUIP,ITE Air Inlet Dewpoint Temperature [C] !Hourly
212,1,EASTDATACENTER_EQUIP,ITE Air Inlet Relative Humidity [%] !Hourly
213,1,EASTDATACENTER_EQUIP,ITE Air Outlet Dry-Bulb Temperature [C] !Hourly
214,1,EASTDATACENTER_EQUIP,ITE Supply Heat Index [] !Hourly
215,1,EASTDATACENTER_EQUIP,ITE Air Inlet Operating Range Exceeded Time [hr] !Hourly
216,1,EASTDATACENTER_EQUIP,ITE Air Inlet Dry-Bulb Temperature Above Operating Range Time [hr] !Hourly
217,1,EASTDATACENTER_EQUIP,ITE Air Inlet Dry-Bulb Temperature Below Operating Range Time [hr] !Hourly
218,1,EASTDATACENTER_EQUIP,ITE Air Inlet Dewpoint Temperature Above Operating Range Time [hr] !Hourly
219,1,EASTDATACENTER_EQUIP,ITE Air Inlet Dewpoint Temperature Below Operating Range Time [hr] !Hourly
220,1,EASTDATACENTER_EQUIP,ITE Air Inlet Relative Humidity Above Operating Range Time [hr] !Hourly
221,1,EASTDATACENTER_EQUIP,ITE Air Inlet Relative Humidity Below Operating Range Time [hr] !Hourly
222,1,EASTDATACENTER_EQUIP,ITE Air Inlet Dry-Bulb Temperature Difference Above Operating Range [deltaC] !Hourly
223,1,EASTDATACENTER_EQUIP,ITE Air Inlet Dry-Bulb Temperature Difference Below Operating Range [deltaC] !Hourly
224,1,EASTDATACENTER_EQUIP,ITE Air Inlet Dewpoint Temperature Difference Above Operating Range [deltaC] !Hourly
225,1,EASTDATACENTER_EQUIP,ITE Air Inlet Dewpoint Temperature Difference Below Operating Range [deltaC] !Hourly
226,1,EASTDATACENTER_EQUIP,ITE Air Inlet Relative Humidity Difference Above Operating Range [%] !Hourly
227,1,EASTDATACENTER_EQUIP,ITE Air Inlet Relative Humidity Difference Below Operating Range [%] !Hourly
228,1,EAST ZONE,Zone ITE CPU Electric Power [W] !Hourly
229,1,EAST ZONE,Zone ITE Fan Electric Power [W] !Hourly
230,1,EAST ZONE,Zone ITE UPS Electric Power [W] !Hourly
231,1,EAST ZONE,Zone ITE CPU Electric Power at Design Inlet Conditions [W] !Hourly
232,1,EAST ZONE,Zone ITE Fan Electric Power at Design Inlet Conditions [W] !Hourly
233,1,EAST ZONE,Zone ITE UPS Heat Gain to Zone Rate [W] !Hourly
234,1,EAST ZONE,Zone ITE Total Heat Gain to Zone Rate [W] !Hourly
239,1,EMS,Power Utilization Effectiveness [] !TimeStep
312,1,WEST ZONE,Zone Air Temperature [C] !TimeStep
313,1,WEST ZONE,Zone Air Relative Humidity [%] !TimeStep
314,1,WEST ZONE,Zone Thermostat Control Type [] !Hourly
315,1,WEST ZONE,Zone Thermostat Heating Setpoint Temperature [C] !Hourly
316,1,WEST ZONE,Zone Thermostat Cooling Setpoint Temperature [C] !Hourly
349,1,EAST ZONE,Zone Air Temperature [C] !TimeStep
350,1,EAST ZONE,Zone Air Relative Humidity [%] !TimeStep
351,1,EAST ZONE,Zone Thermostat Control Type [] !Hourly
352,1,EAST ZONE,Zone Thermostat Heating Setpoint Temperature [C] !Hourly
353,1,EAST ZONE,Zone Thermostat Cooling Setpoint Temperature [C] !Hourly
386,1,WEST PLENUM,Zone Thermostat Control Type [] !Hourly
387,1,WEST PLENUM,Zone Thermostat Heating Setpoint Temperature [C] !Hourly
388,1,WEST PLENUM,Zone Thermostat Cooling Setpoint Temperature [C] !Hourly
421,1,EAST PLENUM,Zone Thermostat Control Type [] !Hourly
422,1,EAST PLENUM,Zone Thermostat Heating Setpoint Temperature [C] !Hourly
423,1,EAST PLENUM,Zone Thermostat Cooling Setpoint Temperature [C] !Hourly
517,1,Whole Building,Facility Total Building Electric Demand Power [W] !Hourly
518,1,Whole Building,Facility Total HVAC Electric Demand Power [W] !Hourly
519,1,Whole Building,Facility Total Electric Demand Power [W] !Hourly
520,1,WEST ZONE,Zone Oscillating Temperatures Time [hr] !Hourly
521,1,EAST ZONE,Zone Oscillating Temperatures Time [hr] !Hourly
522,1,WEST PLENUM,Zone Oscillating Temperatures Time [hr] !Hourly
523,1,EAST PLENUM,Zone Oscillating Temperatures Time [hr] !Hourly
524,1,Facility,Facility Any Zone Oscillating Temperatures Time [hr] !Hourly
525,1,WEST ZONE,Zone Heating Setpoint Not Met Time [hr] !Hourly
526,1,WEST ZONE,Zone Heating Setpoint Not Met While Occupied Time [hr] !Hourly
527,1,WEST ZONE,Zone Cooling Setpoint Not Met Time [hr] !Hourly
528,1,WEST ZONE,Zone Cooling Setpoint Not Met While Occupied Time [hr] !Hourly
529,1,EAST ZONE,Zone Heating Setpoint Not Met Time [hr] !Hourly
530,1,EAST ZONE,Zone Heating Setpoint Not Met While Occupied Time [hr] !Hourly
531,1,EAST ZONE,Zone Cooling Setpoint Not Met Time [hr] !Hourly
532,1,EAST ZONE,Zone Cooling Setpoint Not Met While Occupied Time [hr] !Hourly
533,1,WEST PLENUM,Zone Heating Setpoint Not Met Time [hr] !Hourly
534,1,WEST PLENUM,Zone Heating Setpoint Not Met While Occupied Time [hr] !Hourly
535,1,WEST PLENUM,Zone Cooling Setpoint Not Met Time [hr] !Hourly
536,1,WEST PLENUM,Zone Cooling Setpoint Not Met While Occupied Time [hr] !Hourly
537,1,EAST PLENUM,Zone Heating Setpoint Not Met Time [hr] !Hourly
538,1,EAST PLENUM,Zone Heating Setpoint Not Met While Occupied Time [hr] !Hourly
539,1,EAST PLENUM,Zone Cooling Setpoint Not Met Time [hr] !Hourly
540,1,EAST PLENUM,Zone Cooling Setpoint Not Met While Occupied Time [hr] !Hourly
541,1,WEST ZONE VAV SYSTEM,Zone Air Terminal VAV Damper Position [] !Hourly
542,1,WEST ZONE VAV SYSTEM,Zone Air Terminal Minimum Air Flow Fraction [] !Hourly
543,1,WEST ZONE VAV SYSTEM,Zone Air Terminal Outdoor Air Volume Flow Rate [m3/s] !Hourly
544,1,EAST ZONE VAV SYSTEM,Zone Air Terminal VAV Damper Position [] !Hourly
545,1,EAST ZONE VAV SYSTEM,Zone Air Terminal Minimum Air Flow Fraction [] !Hourly
546,1,EAST ZONE VAV SYSTEM,Zone Air Terminal Outdoor Air Volume Flow Rate [m3/s] !Hourly
599,1,WEST ZONE CW COOLING COIL,Cooling Coil Total Cooling Rate [W] !TimeStep
600,1,WEST ZONE CW COOLING COIL,Cooling Coil Sensible Cooling Rate [W] !TimeStep
603,1,EAST ZONE CW COOLING COIL,Cooling Coil Total Cooling Rate [W] !TimeStep
604,1,EAST ZONE CW COOLING COIL,Cooling Coil Sensible Cooling Rate [W] !TimeStep
605,1,WEST ZONE SUPPLY FAN,Fan Electric Power [W] !Hourly
606,1,WEST ZONE SUPPLY FAN,Fan Rise in Air Temperature [deltaC] !Hourly
607,1,WEST ZONE SUPPLY FAN,Fan Heat Gain to Air [W] !Hourly
608,1,WEST ZONE SUPPLY FAN,Fan Electric Energy [J] !Hourly
639,1,WEST ZONE SUPPLY FAN,Fan Air Mass Flow Rate [kg/s] !Hourly
640,1,EAST ZONE SUPPLY FAN,Fan Electric Power [W] !Hourly
641,1,EAST ZONE SUPPLY FAN,Fan Rise in Air Temperature [deltaC] !Hourly
642,1,EAST ZONE SUPPLY FAN,Fan Heat Gain to Air [W] !Hourly
643,1,EAST ZONE SUPPLY FAN,Fan Electric Energy [J] !Hourly
644,1,EAST ZONE SUPPLY FAN,Fan Air Mass Flow Rate [kg/s] !Hourly
645,1,WEST DATA CENTER IEC,Evaporative Cooler Total Stage Effectiveness [] !TimeStep
646,1,WEST DATA CENTER IEC,Evaporative Cooler Operating Mode Status [] !TimeStep
647,1,EAST DATA CENTER IEC,Evaporative Cooler Total Stage Effectiveness [] !TimeStep
648,1,EAST DATA CENTER IEC,Evaporative Cooler Operating Mode Status [] !TimeStep
649,1,WEST DATA CENTER DEC,Evaporative Cooler Stage Effectiveness [] !TimeStep
650,1,EAST DATA CENTER DEC,Evaporative Cooler Stage Effectiveness [] !TimeStep
662,1,WEST DATA CENTER IEC,Evaporative Cooler Electric Power [W] !TimeStep
663,1,WEST DATA CENTER IEC,Evaporative Cooler Water Volume [m3] !TimeStep
726,1,EAST DATA CENTER IEC,Evaporative Cooler Electric Power [W] !TimeStep
727,1,EAST DATA CENTER IEC,Evaporative Cooler Water Volume [m3] !TimeStep
730,1,WEST DATA CENTER DEC,Evaporative Cooler Electric Power [W] !TimeStep
731,1,WEST DATA CENTER DEC,Evaporative Cooler Water Volume [m3] !TimeStep
734,1,EAST DATA CENTER DEC,Evaporative Cooler Electric Power [W] !TimeStep
735,1,EAST DATA CENTER DEC,Evaporative Cooler Water Volume [m3] !TimeStep
737,1,WEST DX COOLING COIL,Cooling Coil Total Cooling Rate [W] !TimeStep
739,1,WEST DX COOLING COIL,Cooling Coil Sensible Cooling Rate [W] !TimeStep
741,1,EAST DX COOLING COIL,Cooling Coil Total Cooling Rate [W] !TimeStep
743,1,EAST DX COOLING COIL,Cooling Coil Sensible Cooling Rate [W] !TimeStep
766,1,CHILLER,Chiller Evaporator Cooling Rate [W] !Hourly
788,1,CHILLER,Chiller Evaporator Inlet Temperature [C] !Hourly
789,1,CHILLER,Chiller Evaporator Outlet Temperature [C] !Hourly
790,1,CHILLER,Chiller Condenser Heat Transfer Rate [W] !Hourly
802,1,CHILLER,Chiller Condenser Inlet Temperature [C] !Hourly
803,1,CHILLER,Chiller Condenser Outlet Temperature [C] !Hourly
892,1,WEST ZONE INLET NODE,System Node Temperature [C] !TimeStep
893,1,WEST ZONE INLET NODE,System Node Mass Flow Rate [kg/s] !TimeStep
894,1,WEST OUTSIDE AIR INLET NODE,System Node Temperature [C] !TimeStep
895,1,WEST OUTSIDE AIR INLET NODE,System Node Mass Flow Rate [kg/s] !TimeStep
896,1,WEST IEC SECONDARY AIR INLET NODE,System Node Temperature [C] !TimeStep
897,1,WEST IEC SECONDARY AIR INLET NODE,System Node Mass Flow Rate [kg/s] !TimeStep
898,1,WEST ZONE DEC OUTLET NODE,System Node Temperature [C] !TimeStep
899,1,WEST ZONE DEC OUTLET NODE,System Node Setpoint Temperature [C] !TimeStep
900,1,WEST ZONE IEC OUTLET NODE,System Node Temperature [C] !TimeStep
901,1,WEST ZONE IEC OUTLET NODE,System Node Setpoint Temperature [C] !TimeStep
902,1,WEST ZONE CCOIL AIR OUTLET NODE,System Node Temperature [C] !TimeStep
903,1,WEST ZONE CCOIL AIR OUTLET NODE,System Node Setpoint Temperature [C] !TimeStep
904,1,WEST AIR LOOP OUTLET NODE,System Node Temperature [C] !TimeStep
905,1,WEST AIR LOOP OUTLET NODE,System Node Setpoint Temperature [C] !TimeStep
906,1,EAST ZONE INLET NODE,System Node Temperature [C] !TimeStep
907,1,EAST ZONE INLET NODE,System Node Mass Flow Rate [kg/s] !TimeStep
908,1,EAST OUTSIDE AIR INLET NODE,System Node Temperature [C] !TimeStep
909,1,EAST OUTSIDE AIR INLET NODE,System Node Mass Flow Rate [kg/s] !TimeStep
910,1,EAST IEC SECONDARY AIR INLET NODE,System Node Temperature [C] !TimeStep
911,1,EAST IEC SECONDARY AIR INLET NODE,System Node Mass Flow Rate [kg/s] !TimeStep
912,1,EAST ZONE DEC OUTLET NODE,System Node Temperature [C] !TimeStep
913,1,EAST ZONE DEC OUTLET NODE,System Node Setpoint Temperature [C] !TimeStep
914,1,EAST ZONE IEC OUTLET NODE,System Node Temperature [C] !TimeStep
915,1,EAST ZONE IEC OUTLET NODE,System Node Setpoint Temperature [C] !TimeStep
916,1,EAST ZONE CCOIL AIR OUTLET NODE,System Node Temperature [C] !TimeStep
917,1,EAST ZONE CCOIL AIR OUTLET NODE,System Node Setpoint Temperature [C] !TimeStep
918,1,EAST AIR LOOP OUTLET NODE,System Node Temperature [C] !TimeStep
919,1,EAST AIR LOOP OUTLET NODE,System Node Setpoint Temperature [C] !TimeStep
920,1,WEST ZONE RETURN AIR NODE,System Node Temperature [C] !TimeStep
921,1,WEST ZONE RETURN AIR NODE,System Node Mass Flow Rate [kg/s] !TimeStep
922,1,WEST ZONE MIXED AIR NODE,System Node Temperature [C] !TimeStep
923,1,WEST ZONE MIXED AIR NODE,System Node Mass Flow Rate [kg/s] !TimeStep
924,1,WEST ZONE SUPPLY FAN OUTLET NODE,System Node Temperature [C] !TimeStep
925,1,EAST ZONE SUPPLY FAN OUTLET NODE,System Node Temperature [C] !TimeStep
926,1,WEST IEC SECONDARY AIR OUTLET NODE,System Node Temperature [C] !TimeStep
927,1,WEST IEC SECONDARY AIR OUTLET NODE,System Node Mass Flow Rate [kg/s] !TimeStep
End of Data Dictionary
1,WHOLEYEARDAY,  37.62,-122.40,  -8.00,   2.00
2,1, 1, 1, 0, 1, 0.00,15.00,Tuesday
6,6.825
239,1.0300298866314462
312,21.88076368318489
313,34.85900940105909
349,24.08619543987536
350,27.406046717591257
599,0.0
600,0.0
603,0.0
604,0.0
645,0.06719492404147715
647,0.02186082815475312
649,0.5133333333333332
650,0.6533333333333331
662,4.441818300604217
663,0.0
726,0.661815512939955
727,0.0
730,7.760406823667654
731,0.0037700818571579609
734,2.229714376963226
735,0.0012137636618774813
737,0.0
739,0.0
741,0.0
743,0.0
892,16.28669585568106
893,3.3371063333333335
894,6.825
895,0.559756955176334
896,6.825
897,0.27782636741455238
898,17.424396099899505
899,25.842691133333337
900,16.82064900663411
901,25.842691133333337
902,16.82064900663411
903,25.842691133333337
904,16.82064900663411
905,25.842691133333337
906,20.407855145597126
907,4.357390604661159
908,6.825
909,0.1626879133662753
910,6.825
911,0.09600182412134918
912,22.819416191473036
913,33.7495186
914,22.588719395950205
915,33.7495186
916,22.588719395950205
917,33.7495186
918,22.588719395950205
919,33.7495186
920,21.902935197275789
921,3.3371063333333335
922,18.737959732113617
923,3.3371063333333335
924,19.101451226695109
925,23.431823626130599
926,7.7875273098749979
927,0.27782636741455238
646,0.13333333333333334
648,0.06666666666666667
2,1, 1, 1, 0, 1,15.00,30.00,Tuesday
6,6.95
239,1.0781546454447458
312,27.76645283111211
313,29.62065422373337
349,31.553363812694398
350,20.815395348564523
599,0.0
600,0.0
603,3274.032453165199
604,536.986934401495
645,0.1891034538041645
647,0.047955742357245107
649,0.46666666666666659
650,0.6533333333333331
662,216.7789888929535
663,0.0
726,108.3547585160584
727,0.0
730,10.357963125799853
731,0.004836052838755024
734,5.374220228851202
735,0.004627043958900301
737,1593.062200141511
739,103.53140558688379
741,0.0
743,0.0
892,17.558891503697564
893,3.2287220895055905
894,6.9499999999999979
895,1.117720645452421
896,6.9499999999999979
897,1.6789813140499957
898,17.828961819030789
899,22.91998206666667
900,15.765859364115876
901,22.91998206666667
902,15.71402586103962
903,22.91998206666667
904,15.71402586103962
905,22.91998206666667
906,22.961856786722497
907,3.940693404661159
908,6.9499999999999979
909,0.4531765671386792
910,6.9499999999999979
911,0.6829820928573129
912,26.10927682456024
913,33.8570142
914,25.383208540931986
915,33.8570142
916,25.383208540931986
917,33.8570142
918,25.303251323391064
919,33.8570142
920,27.369922807755115
921,3.2287220895055905
922,20.11093253555249
923,3.2287220895055905
924,20.500924818835839
925,27.957229558274109
926,9.168565973523656
927,1.6789813140499957
646,0.3333333333333333
648,0.06666666666666667
2,1, 1, 1, 0, 1,30.00,45.00,Tuesday
6,7.075
239,1.041261953482841
312,23.841895758688218
313,39.30341878149627
349,40.392634098069859
350,14.30827893588496
599,0.0
600,0.0
603,14.7506288598625
604,14.75062885986198
645,0.1128645293816948
647,0.024183761164037595
649,0.46666666666666659
650,0.46666666666666659
662,193.42577348140936
663,0.0
726,0.17614950433223287
727,0.0
730,10.0
731,0.0037786144372264059
734,2.3081920346144906
735,0.00161134932923061
737,3835.123636021842
739,313.65224396258579
741,0.0
743,0.0
892,16.279450249100454
893,3.032887489505589
894,7.075
895,0.829769047728677
896,7.075
897,1.237607387019258
898,17.679025066091389
899,23.250755466666666
900,16.421893321900858
901,23.250755466666666
902,16.358157717758574
903,23.250755466666666
904,16.358157717758574
905,23.250755466666666
906,31.902426946250939
907,5.569528711652897
908,7.075
909,0.545592968168091
910,7.075
911,0.08742716264036317
912,35.751760990458027
913,37.88251186666667
914,35.22390257182296
915,37.88251186666667
916,35.22390257182296
917,37.88251186666667
918,35.22145992211616
919,37.88251186666667
920,24.04643693870835
921,3.032887489505589
922,19.38888067083621
923,3.032887489505589
924,19.746090299820634
925,36.814760888607299
926,8.756239219861947
927,1.237607387019258
646,0.26666666666666669
648,0.13333333333333334
2,1, 1, 1, 0, 1,45.00,60.00,Tuesday
6,7.2
239,1.0300575992662269
312,25.661260416814434
313,36.363621473778959
349,46.762765866779428
350,10.376940043706524
599,0.0
600,0.0
603,13.836844013788252
604,13.836844013790043
645,0.11403514759327199
647,0.08528468999913265
649,0.5599999999999998
650,0.27999999999999999
662,104.56565913503968
663,0.0
726,0.7563578179283221
727,0.0
730,10.067676146376208
731,0.004114940232087529
734,2.0
735,0.0009091141449792823
737,915.1351885381885
739,83.5837223364843
741,0.0
743,0.0
892,18.556451934675576
893,4.309681312344514
894,7.200000000000003
895,0.8720498027333017
896,7.200000000000003
897,0.9531880365458731
898,19.86835841680972
899,26.397376399999997
900,18.52158266873702
901,26.397376399999997
902,18.474711693158466
903,26.397376399999997
904,18.474711693158466
905,26.397376399999997
906,30.5371350963723
907,3.907429871327826
908,7.200000000000003
909,1.2921771483424379
910,7.200000000000003
911,0.17952953424168856
912,33.78124629386758
913,35.57365846666667
914,31.240692512235179
915,35.57365846666667
916,31.240692512235179
917,35.57365846666667
918,31.235914130238343
919,35.57365846666667
920,25.447465363985367
921,4.309681312344514
922,21.80650713701161
923,4.309681312344514
924,22.124899635459096
925,34.71605898088495
926,9.290362546159376
927,0.9531880365458731
646,0.26666666666666669
648,0.3333333333333333
2,1, 1, 1, 0, 1, 0.00,60.00,Tuesday
133,16842.27419763191
134,13124.613788062514
135,2996.688798569442
136,13936.849545599995
137,10219.334400000002
138,2996.688798569442
139,32963.57678426387
173,4.745072786063261
174,16.563608353430906
175,7.153657407869335
176,0.54317224615767
177,24.18227039722965
178,0.10054889723057274
179,1.0
180,0.0
181,0.0
182,0.0
183,0.0
184,0.0
185,1.0
186,0.0
187,0.0
188,0.0
189,0.0
190,0.0
191,-19.45682775384233
192,16842.27419763191
193,13124.613788062514
194,2996.688798569442
195,13936.849545599995
196,10219.334400000002
197,2996.688798569442
198,32963.57678426387
199,35383.294754895265
200,31235.468477471404
201,6661.876323236665
202,15546.354479999996
203,11399.520000000002
204,6661.876323236665
205,73280.63955560333
209,10.902634080522642
210,24.570378105928378
211,5.94599819271502
212,0.3242147884417774
213,31.989167049736524
214,0.08781400776781699
215,1.0
216,0.0
217,0.0
218,0.0
219,0.0
220,0.0
221,1.0
222,0.0
223,0.0
224,0.0
225,0.0
226,0.0
227,-19.675785211558226
228,35383.294754895265
229,31235.468477471404
230,6661.876323236665
231,15546.354479999996
232,11399.520000000002
233,6661.876323236665
234,73280.63955560333
315,20.0
316,23.0
352,20.0
353,23.0
387,0.0
388,0.0
422,0.0
423,0.0
525,0.0
526,0.0
527,0.75
528,0.0
529,0.0
530,0.0
531,1.0
532,0.0
533,0.0
534,0.0
535,0.0
536,0.0
537,0.0
538,0.0
539,0.0
540,0.0
314,4.0
351,4.0
386,0.0
421,0.0
517,106272.6163398672
518,4144.446193544924
519,110417.0625334121
520,0.06666666666666667
521,0.016666666666666668
522,0.06666666666666667
523,0.05
524,0.18333333333333336
541,0.5573970532405661
542,0.4
543,0.7016676421865364
544,0.6358205944782507
545,0.4
546,0.5094658096419671
605,1279.9055851365592
606,0.35727147632418679
607,1151.915026622903
608,4607660.106491613
639,3.4770993061722565
640,1597.9006828452007
641,0.3503479615096332
642,1438.1106145606807
643,5752442.458242721
644,4.44376064807576
766,924.2722983785558
788,10.174277198883204
789,9.910796291067307
790,1058.940608276439
802,9.948032461372886
803,9.957680901539689
2,1, 1, 1, 0, 2, 0.00,15.00,Tuesday
6,7.2
239,1.0198530269169633
312,29.70125343375705
313,29.588262744081967
349,50.278661007742069
350,8.433878498486042
599,0.0
600,0.0
603,4157.374175628217
604,816.0604026857194
645,0.16373648652507903
647,0.08116643816506845
649,0.32666666666666668
650,0.46666666666666659
662,131.846809875386
663,0.0
726,108.78894862305534
727,0.0
730,7.926930426700002
731,0.0037649673158903576
734,2.0
735,0.00247584293207585
737,1866.8461449260994
739,187.56283995678656
741,0.0
743,0.0
892,18.054749030452699
893,4.138229914194616
894,7.200000000000003
895,1.5640456338535978
896,7.200000000000003
897,1.364689884671825
898,19.50530518974857
899,24.30883446666667
900,17.313669580536847
901,24.30883446666667
902,17.259194752150667
903,24.30883446666667
904,17.259194752150667
905,24.30883446666667
906,31.295933416471358
907,3.7937162
908,7.200000000000003
909,1.1011656698553186
910,7.200000000000003
911,0.7664726742751477
912,35.60369273091787
913,37.03449086666667
914,33.72436851232318
915,37.03449086666667
916,33.72436851232318
917,37.03449086666667
918,33.558138960564679
919,37.03449086666667
920,29.593173254385943
921,4.138229914194616
922,21.079717510611535
923,4.138229914194616
924,21.422462406327595
925,36.54321482069591
926,12.19077328499736
927,1.364689884671825
646,0.39999999999999999
648,0.2
2,1, 1, 1, 0, 2,15.00,30.00,Tuesday
6,7.2
239,1.0169722791199814
312,24.902562795358283
313,39.598563487497127
349,42.5866325308217
350,12.727876484499494
599,0.0
600,0.0
603,18.62314436998336
604,18.62314436998287
645,0.1292897228930346
647,0.03560291863268452
649,0.41999999999999995
650,0.46666666666666659
662,18.316008864929708
663,0.0
726,2.867807789354406
727,0.0
730,10.275883350419225
731,0.0038051360344563145
734,2.3309191717018589
735,0.002605844907063541
737,0.0
739,0.0
741,0.0
743,0.0
892,17.118700257746715
893,3.854320335183436
894,7.200000000000003
895,1.304761488969615
896,7.200000000000003
897,0.6013964100752173
898,17.32305080808001
899,21.801732066666668
900,16.19054413994837
901,21.801732066666668
902,16.19054413994837
903,21.801732066666668
904,16.19054413994837
905,21.801732066666668
906,34.01973868677937
907,4.793121275988985
908,7.200000000000003
909,0.7984850848449489
910,7.200000000000003
911,0.20622819942235905
912,36.67826887257892