Program Version,EnergyPlus, Version 8.8.0-Unknown, YMD=2019.07.16 14:15
1,5,Environment Title[],Latitude[deg],Longitude[deg],Time Zone[],Elevation[m]
2,6,Day of Simulation[],Month[],Day of Month[],DST Indicator[1=yes 0=no],Hour[],StartMinute[],EndMinute[],DayType
3,3,Cumulative Day of Simulation[],Month[],Day of Month[],DST Indicator[1=yes 0=no],DayType  ! When Daily Report Variables Requested
4,2,Cumulative Days of Simulation[],Month[]  ! When Monthly Report Variables Requested
5,1,Cumulative Days of Simulation[] ! When Run Period Report Variables Requested
6,1,Environment,Site Outdoor Air Drybulb Temperature [C] !TimeStep
133,1,WESTDATACENTER_EQUIP,ITE CPU Electric Power [W] !Hourly
134,1,WESTDATACENTER_EQUIP,ITE Fan Electric Power [W] !Hourly
135,1,WESTDATACENTER_EQUIP,ITE UPS Electric Power [W] !Hourly
136,1,WESTDATACENTER_EQUIP,ITE CPU Electric Power at Design Inlet Conditions [W] !Hourly
137,1,WESTDATACENTER_EQUIP,ITE Fan Electric Power at Design Inlet Conditions [W] !Hourly
138,1,WESTDATACENTER_EQUIP,ITE UPS Heat Gain to Zone Rate [W] !Hourly
139,1,WESTDATACENTER_EQUIP,ITE Total Heat Gain to Zone Rate [W] !Hourly
173,1,WESTDATACENTER_EQUIP,ITE Standard Density Air Volume Flow Rate [m3/s] !Hourly
174,1,WESTDATACENTER_EQUIP,ITE Air Inlet Dry-Bulb Temperature [C] !Hourly
175,1,WESTDATACENTER_EQUIP,ITE Air Inlet Dewpoint Temperature [C] !Hourly
176,1,WESTDATACENTER_EQUIP,ITE Air Inlet Relative Humidity [%] !Hourly
177,1,WESTDATACENTER_EQUIP,ITE Air Outlet Dry-Bulb Temperature [C] !Hourly
178,1,WESTDATACENTER_EQUIP,ITE Supply Heat Index [] !Hourly
179,1,WESTDATACENTER_EQUIP,ITE Air Inlet Operating Range Exceeded Time [hr] !Hourly
180,1,WESTDATACENTER_EQUIP,ITE Air Inlet Dry-Bulb Temperature Above Operating Range Time [hr] !Hourly
181,1,WESTDATACENTER_EQUIP,ITE Air Inlet Dry-Bulb Temperature Below Operating Range Time [hr] !Hourly
182,1,WESTDATACENTER_EQUIP,ITE Air Inlet Dewpoint Temperature Above Operating Range Time [hr] !Hourly
183,1,WESTDATACENTER_EQUIP,ITE Air Inlet Dewpoint Temperature Below Operating Range Time [hr] !Hourly
184,1,WESTDATACENTER_EQUIP,ITE Air Inlet Relative Humidity Above Operating Range Time [hr] !Hourly
185,1,WESTDATACENTER_EQUIP,ITE Air Inlet Relative Humidity Below Operating Range Time [hr] !Hourly
186,1,WESTDATACENTER_EQUIP,ITE Air Inlet Dry-Bulb Temperature Difference Above Operating Range [deltaC] !Hourly
187,1,WESTDATACENTER_EQUIP,ITE Air Inlet Dry-Bulb Temperature Difference Below Operating Range [deltaC] !Hourly
188,1,WESTDATACENTER_EQUIP,ITE Air Inlet Dewpoint Temperature Difference Above Operating Range [deltaC] !Hourly
189,1,WESTDATACENTER_EQUIP,ITE Air Inlet Dewpoint Temperature Difference Below Operating Range [deltaC] !Hourly
190,1,WESTDATACENTER_EQUIP,ITE Air Inlet Relative Humidity Difference Above Operating Range [%] !Hourly
191,1,WESTDATACENTER_EQUIP,ITE Air Inlet Relative Humidity Difference Below Operating Range [%] !Hourly
192,1,WEST ZONE,Zone ITE CPU Electric Power [W] !Hourly
193,1,WEST ZONE,Zone ITE Fan Electric Power [W] !Hourly
194,1,WEST ZONE,Zone ITE UPS Electric Power [W] !Hourly
195,1,WEST ZONE,Zone ITE CPU Electric Power at Design Inlet Conditions [W] !Hourly
196,1,WEST ZONE,Zone ITE Fan Electric Power at Design Inlet Conditions [W] !Hourly
197,1,WEST ZONE,Zone ITE UPS Heat Gain to Zone Rate [W] !Hourly
198,1,WEST ZONE,Zone ITE Total Heat Gain to Zone Rate [W] !Hourly
199,1,EASTDATACENTER_EQUIP,ITE CPU Electric Power [W] !Hourly
200,1,EASTDATACENTER_EQUIP,ITE Fan Electric Power [W] !Hourly
201,1,EASTDATACENTER_EQUIP,ITE UPS Electric Power [W] !Hourly
202,1,EASTDATACENTER_EQUIP,ITE CPU Electric Power at Design Inlet Conditions [W] !Hourly
203,1,EASTDATACENTER_EQUIP,ITE Fan Electric Power at Design Inlet Conditions [W] !Hourly
204,1,EASTDATACENTER_EQUIP,ITE UPS Heat Gain to Zone Rate [W] !Hourly
205,1,EASTDATACENTER_EQUIP,ITE Total Heat Gain to Zone Rate [W] !Hourly
209,1,EASTDATACENTER_EQUIP,ITE Standard Density Air Volume Flow Rate [m3/s] !Hourly
210,1,EASTDATACENTER_EQUIP,ITE Air Inlet Dry-Bulb Temperature [C] !Hourly
211,1,EASTDATACENTER_EQUIP,ITE Air Inlet Dewpoint Temperature [C] !Hourly
212,1,EASTDATACENTER_EQUIP,ITE Air Inlet Relative Humidity [%] !Hourly
213,1,EASTDATACENTER_EQUIP,ITE Air Outlet Dry-Bulb Temperature [C] !Hourly
214,1,EASTDATACENTER_EQUIP,ITE Supply Heat Index [] !Hourly
215,1,EASTDATACENTER_EQUIP,ITE Air Inlet Operating Range Exceeded Time [hr] !Hourly
216,1,EASTDATACENTER_EQUIP,ITE Air Inlet Dry-Bulb Temperature Above Operating Range Time [hr] !Hourly
217,1,EASTDATACENTER_EQUIP,ITE Air Inlet Dry-Bulb Temperature Below Operating Range Time [hr] !Hourly
218,1,EASTDATACENTER_EQUIP,ITE Air Inlet Dewpoint Temperature Above Operating Range Time [hr] !Hourly
219,1,EASTDATACENTER_EQUIP,ITE Air Inlet Dewpoint Temperature Below Operating Range Time [hr] !Hourly
220,1,EASTDATACENTER_EQUIP,ITE Air Inlet Relative Humidity Above Operating Range Time [hr] !Hourly
221,1,EASTDATACENTER_EQUIP,ITE Air Inlet Relative Humidity Below Operating Range Time [hr] !Hourly
222,1,EASTDATACENTER_EQUIP,ITE Air Inlet Dry-Bulb Temperature Difference Above Operating Range [deltaC] !Hourly
223,1,EASTDATACENTER_EQUIP,ITE Air Inlet Dry-Bulb Temperature Difference Below Operating Range [deltaC] !Hourly
224,1,EASTDATACENTER_EQUIP,ITE Air Inlet Dewpoint Temperature Difference Above Operating Range [deltaC] !Hourly
225,1,EASTDATACENTER_EQUIP,ITE Air Inlet Dewpoint Temperature Difference Below Operating Range [deltaC] !Hourly
226,1,EASTDATACENTER_EQUIP,ITE Air Inlet Relative Humidity Difference Above Operating Range [%] !Hourly
227,1,EASTDATACENTER_EQUIP,ITE Air Inlet Relative Humidity Difference Below Operating Range [%] !Hourly
228,1,EAST ZONE,Zone ITE CPU Electric Power [W] !Hourly
229,1,EAST ZONE,Zone ITE Fan Electric Power [W] !Hourly
230,1,EAST ZONE,Zone ITE UPS Electric Power [W] !Hourly
231,1,EAST ZONE,Zone ITE CPU Electric Power at Design Inlet Conditions [W] !Hourly
232,1,EAST ZONE,Zone ITE Fan Electric Power at Design Inlet Conditions [W] !Hourly
233,1,EAST ZONE,Zone ITE UPS Heat Gain to Zone Rate [W] !Hourly
234,1,EAST ZONE,Zone ITE Total Heat Gain to Zone Rate [W] !Hourly
239,1,EMS,Power Utilization Effectiveness [] !TimeStep
312,1,WEST ZONE,Zone Air Temperature [C] !TimeStep
313,1,WEST ZONE,Zone Air Relative Humidity [%] !TimeStep
314,1,WEST ZONE,Zone Thermostat Control Type [] !Hourly
315,1,WEST ZONE,Zone Thermostat Heating Setpoint Temperature [C] !Hourly
316,1,WEST ZONE,Zone Thermostat Cooling Setpoint Temperature [C] !Hourly
349,1,EAST ZONE,Zone Air Temperature [C] !TimeStep
350,1,EAST ZONE,Zone Air Relative Humidity [%] !TimeStep
351,1,EAST ZONE,Zone Thermostat Control Type [] !Hourly
352,1,EAST ZONE,Zone Thermostat Heating Setpoint Temperature [C] !Hourly
353,1,EAST ZONE,Zone Thermostat Cooling Setpoint Temperature [C] !Hourly
386,1,WEST PLENUM,Zone Thermostat Control Type [] !Hourly
387,1,WEST PLENUM,Zone Thermostat Heating Setpoint Temperature [C] !Hourly
388,1,WEST PLENUM,Zone Thermostat Cooling Setpoint Temperature [C] !Hourly
421,1,EAST PLENUM,Zone Thermostat Control Type [] !Hourly
422,1,EAST PLENUM,Zone Thermostat Heating Setpoint Temperature [C] !Hourly
423,1,EAST PLENUM,Zone Thermostat Cooling Setpoint Temperature [C] !Hourly
517,1,Whole Building,Facility Total Building Electric Demand Power [W] !Hourly
518,1,Whole Building,Facility Total HVAC Electric Demand Power [W] !Hourly
519,1,Whole Building,Facility Total Electric Demand Power [W] !Hourly
520,1,WEST ZONE,Zone Oscillating Temperatures Time [hr] !Hourly
521,1,EAST ZONE,Zone Oscillating Temperatures Time [hr] !Hourly
522,1,WEST PLENUM,Zone Oscillating Temperatures Time [hr] !Hourly
523,1,EAST PLENUM,Zone Oscillating Temperatures Time [hr] !Hourly
524,1,Facility,Facility Any Zone Oscillating Temperatures Time [hr] !Hourly
525,1,WEST ZONE,Zone Heating Setpoint Not Met Time [hr] !Hourly
526,1,WEST ZONE,Zone Heating Setpoint Not Met While Occupied Time [hr] !Hourly
527,1,WEST ZONE,Zone Cooling Setpoint Not Met Time [hr] !Hourly
528,1,WEST ZONE,Zone Cooling Setpoint Not Met While Occupied Time [hr] !Hourly
529,1,EAST ZONE,Zone Heating Setpoint Not Met Time [hr] !Hourly
530,1,EAST ZONE,Zone Heating Setpoint Not Met While Occupied Time [hr] !Hourly
531,1,EAST ZONE,Zone Cooling Setpoint Not Met Time [hr] !Hourly
532,1,EAST ZONE,Zone Cooling Setpoint Not Met While Occupied Time [hr] !Hourly
533,1,WEST PLENUM,Zone Heating Setpoint Not Met Time [hr] !Hourly
534,1,WEST PLENUM,Zone Heating Setpoint Not Met While Occupied Time [hr] !Hourly
535,1,WEST PLENUM,Zone Cooling Setpoint Not Met Time [hr] !Hourly
536,1,WEST PLENUM,Zone Cooling Setpoint Not Met While Occupied Time [hr] !Hourly
537,1,EAST PLENUM,Zone Heating Setpoint Not Met Time [hr] !Hourly
538,1,EAST PLENUM,Zone Heating Setpoint Not Met While Occupied Time [hr] !Hourly
539,1,EAST PLENUM,Zone Cooling Setpoint Not Met Time [hr] !Hourly
540,1,EAST PLENUM,Zone Cooling Setpoint Not Met While Occupied Time [hr] !Hourly
541,1,WEST ZONE VAV SYSTEM,Zone Air Terminal VAV Damper Position [] !Hourly
542,1,WEST ZONE VAV SYSTEM,Zone Air Terminal Minimum Air Flow Fraction [] !Hourly
543,1,WEST ZONE VAV SYSTEM,Zone Air Terminal Outdoor Air Volume Flow Rate [m3/s] !Hourly
544,1,EAST ZONE VAV SYSTEM,Zone Air Terminal VAV Damper Position [] !Hourly
545,1,EAST ZONE VAV SYSTEM,Zone Air Terminal Minimum Air Flow Fraction [] !Hourly
546,1,EAST ZONE VAV SYSTEM,Zone Air Terminal Outdoor Air Volume Flow Rate [m3/s] !Hourly
599,1,WEST ZONE CW COOLING COIL,Cooling Coil Total Cooling Rate [W] !TimeStep
600,1,WEST ZONE CW COOLING COIL,Cooling Coil Sensible Cooling Rate [W] !TimeStep
603,1,EAST ZONE CW COOLING COIL,Cooling Coil Total Cooling Rate [W] !TimeStep
604,1,EAST ZONE CW COOLING COIL,Cooling Coil Sensible Cooling Rate [W] !TimeStep
605,1,WEST ZONE SUPPLY FAN,Fan Electric Power [W] !Hourly
606,1,WEST ZONE SUPPLY FAN,Fan Rise in Air Temperature [deltaC] !Hourly
607,1,WEST ZONE SUPPLY FAN,Fan Heat Gain to Air [W] !Hourly
608,1,WEST ZONE SUPPLY FAN,Fan Electric Energy [J] !Hourly
639,1,WEST ZONE SUPPLY FAN,Fan Air Mass Flow Rate [kg/s] !Hourly
640,1,EAST ZONE SUPPLY FAN,Fan Electric Power [W] !Hourly
641,1,EAST ZONE SUPPLY FAN,Fan Rise in Air Temperature [deltaC] !Hourly
642,1,EAST ZONE SUPPLY FAN,Fan Heat Gain to Air [W] !Hourly
643,1,EAST ZONE SUPPLY FAN,Fan Electric Energy [J] !Hourly
644,1,EAST ZONE SUPPLY FAN,Fan Air Mass Flow Rate [kg/s] !Hourly
645,1,WEST DATA CENTER IEC,Evaporative Cooler Total Stage Effectiveness [] !TimeStep
646,1,WEST DATA CENTER IEC,Evaporative Cooler Operating Mode Status [] !TimeStep
647,1,EAST DATA CENTER IEC,Evaporative Cooler Total Stage Effectiveness [] !TimeStep
648,1,EAST DATA CENTER IEC,Evaporative Cooler Operating Mode Status [] !TimeStep
649,1,WEST DATA CENTER DEC,Evaporative Cooler Stage Effectiveness [] !TimeStep
650,1,EAST DATA CENTER DEC,Evaporative Cooler Stage Effectiveness [] !TimeStep
662,1,WEST DATA CENTER IEC,Evaporative Cooler Electric Power [W] !TimeStep
663,1,WEST DATA CENTER IEC,Evaporative Cooler Water Volume [m3] !TimeStep
726,1,EAST DATA CENTER IEC,Evaporative Cooler Electric Power [W] !TimeStep
727,1,EAST DATA CENTER IEC,Evaporative Cooler Water Volume [m3] !TimeStep
730,1,WEST DATA CENTER DEC,Evaporative Cooler Electric Power [W] !TimeStep
731,1,WEST DATA CENTER DEC,Evaporative Cooler Water Volume [m3] !TimeStep
734,1,EAST DATA CENTER DEC,Evaporative Cooler Electric Power [W] !TimeStep
735,1,EAST DATA CENTER DEC,Evaporative Cooler Water Volume [m3] !TimeStep
737,1,WEST DX COOLING COIL,Cooling Coil Total Cooling Rate [W] !TimeStep
739,1,WEST DX COOLING COIL,Cooling Coil Sensible Cooling Rate [W] !TimeStep
741,1,EAST DX COOLING COIL,Cooling Coil Total Cooling Rate [W] !TimeStep
743,1,EAST DX COOLING COIL,Cooling Coil Sensible Cooling Rate [W] !TimeStep
766,1,CHILLER,Chiller Evaporator Cooling Rate [W] !Hourly
788,1,CHILLER,Chiller Evaporator Inlet Temperature [C] !Hourly
789,1,CHILLER,Chiller Evaporator Outlet Temperature [C] !Hourly
790,1,CHILLER,Chiller Condenser Heat Transfer Rate [W] !Hourly
802,1,CHILLER,Chiller Condenser Inlet Temperature [C] !Hourly
803,1,CHILLER,Chiller Condenser Outlet Temperature [C] !Hourly
892,1,WEST ZONE INLET NODE,System Node Temperature [C] !TimeStep
893,1,WEST ZONE INLET NODE,System Node Mass Flow Rate [kg/s] !TimeStep
894,1,WEST OUTSIDE AIR INLET NODE,System Node Temperature [C] !TimeStep
895,1,WEST OUTSIDE AIR INLET NODE,System Node Mass Flow Rate [kg/s] !TimeStep
896,1,WEST IEC SECONDARY AIR INLET NODE,System Node Temperature [C] !TimeStep
897,1,WEST IEC SECONDARY AIR INLET NODE,System Node Mass Flow Rate [kg/s] !TimeStep
898,1,WEST ZONE DEC OUTLET NODE,System Node Temperature [C] !TimeStep
899,1,WEST ZONE DEC OUTLET NODE,System Node Setpoint Temperature [C] !TimeStep
900,1,WEST ZONE IEC OUTLET NODE,System Node Temperature [C] !TimeStep
901,1,WEST ZONE IEC OUTLET NODE,System Node Setpoint Temperature [C] !TimeStep
902,1,WEST ZONE CCOIL AIR OUTLET NODE,System Node Temperature [C] !TimeStep
903,1,WEST ZONE CCOIL AIR OUTLET NODE,System Node Setpoint Temperature [C] !TimeStep
904,1,WEST AIR LOOP OUTLET NODE,System Node Temperature [C] !TimeStep
905,1,WEST AIR LOOP OUTLET NODE,System Node Setpoint Temperature [C] !TimeStep
906,1,EAST ZONE INLET NODE,System Node Temperature [C] !TimeStep
907,1,EAST ZONE INLET NODE,System Node Mass Flow Rate [kg/s] !TimeStep
908,1,EAST OUTSIDE AIR INLET NODE,System Node Temperature [C] !TimeStep
909,1,EAST OUTSIDE AIR INLET NODE,System Node Mass Flow Rate [kg/s] !TimeStep
910,1,EAST IEC SECONDARY AIR INLET NODE,System Node Temperature [C] !TimeStep
911,1,EAST IEC SECONDARY AIR INLET NODE,System Node Mass Flow Rate [kg/s] !TimeStep
912,1,EAST ZONE DEC OUTLET NODE,System Node Temperature [C] !TimeStep
913,1,EAST ZONE DEC OUTLET NODE,System Node Setpoint Temperature [C] !TimeStep
914,1,EAST ZONE IEC OUTLET NODE,System Node Temperature [C] !TimeStep
915,1,EAST ZONE IEC OUTLET NODE,System Node Setpoint Temperature [C] !TimeStep
916,1,EAST ZONE CCOIL AIR OUTLET NODE,System Node Temperature [C] !TimeStep
917,1,EAST ZONE CCOIL AIR OUTLET NODE,System Node Setpoint Temperature [C] !TimeStep
918,1,EAST AIR LOOP OUTLET NODE,System Node Temperature [C] !TimeStep
919,1,EAST AIR LOOP OUTLET NODE,System Node Setpoint Temperature [C] !TimeStep
920,1,WEST ZONE RETURN AIR NODE,System Node Temperature [C] !TimeStep
921,1,WEST ZONE RETURN AIR NODE,System Node Mass Flow Rate [kg/s] !TimeStep
922,1,WEST ZONE MIXED AIR NODE,System Node Temperature [C] !TimeStep
923,1,WEST ZONE MIXED AIR NODE,System Node Mass Flow Rate [kg/s] !TimeStep
924,1,WEST ZONE SUPPLY FAN OUTLET NODE,System Node Temperature [C] !TimeStep
925,1,EAST ZONE SUPPLY FAN OUTLET NODE,System Node Temperature [C] !TimeStep
926,1,WEST IEC SECONDARY AIR OUTLET NODE,System Node Temperature [C] !TimeStep
927,1,WEST IEC SECONDARY AIR OUTLET NODE,System Node Mass Flow Rate [kg/s] !TimeStep
End of Data Dictionary
1,WHOLEYEARDAY,  37.62,-122.40,  -8.00,   2.00
2,1, 1, 1, 0, 1, 0.00,15.00,Tuesday
6,6.825
239,1.0300298866314462
312,20.493895196536159
313,37.67799021985123
349,24.829238667574523
350,25.714023519859393
599,0.0
600,0.0
603,0.0
604,0.0
645,0.09796528728762594
647,0.0
649,0.41999999999999995
650,0.6999999999999997
662,37.367986212201817
663,0.0
726,0.0
727,0.0
730,8.9217831805932
731,0.0054753035120378
734,0.0
735,0.0
737,0.0
739,0.0
741,0.0
743,0.0
892,15.16557710369066
893,4.343479868516769
894,6.825
895,1.0802933340728045
896,6.825
897,0.7319161807506937
898,15.51236095519262
899,22.0853642
900,14.691779895734994
901,22.0853642
902,14.691779895734994
903,22.0853642
904,14.691779895734994
905,22.0853642
906,21.94011272112822
907,4.608123973658405
908,6.825
909,0.0
910,6.825
911,0.0
912,24.91223077881708
913,39.29792533333333
914,24.91223077881708
915,39.29792533333333
916,24.91223077881708
917,39.29792533333333
918,24.91223077881708
919,39.29792533333333
920,20.68355416648141
921,4.343479868516769
922,16.912230616593435
923,4.343479868516769
924,17.238518239031163
925,24.91223077881708
926,8.170913468088895
927,0.7319161807506937
646,0.2
648,0.0
2,1, 1, 1, 0, 1,15.00,30.00,Tuesday
6,6.95
239,1.0870930880040999
312,20.27404278712489
313,44.67965920561196
349,35.95910308565651
350,15.032634382514816
599,0.0
600,0.0
603,2.6328112105785119
604,2.6328112105785119
645,0.1489409718378983
647,0.0
649,0.46666666666666659
650,0.6999999999999997
662,24.284743480406374
663,0.0
726,0.0
727,0.0
730,8.971663742823738
731,0.0030123700125579998
734,1.652303010496162
735,0.0021525801017528896
737,0.0
739,0.0
741,0.0
743,0.0
892,15.17255903578711
893,3.970786424689026
894,6.9499999999999979
895,1.1482509280892877
896,6.9499999999999979
897,0.6588406006136812
898,15.037631825732224
899,20.535674200000004
900,13.909626294018786
901,20.535674200000004
902,13.909626294018786
903,20.535674200000004
904,13.909626294018786
905,20.535674200000004
906,29.927529356746306
907,4.740668106991738
908,6.9499999999999979
909,0.12001788174666028
910,6.9499999999999979
911,0.0
912,33.7605397599252
913,38.24253266666667
914,33.7605397599252
915,38.24253266666667
916,33.7605397599252
917,38.24253266666667
918,33.76013087003872
919,38.24253266666667
920,20.09584577766788
921,3.970786424689026
922,16.175545731853924
923,3.970786424689026
924,16.514786689876865
925,34.372661807927759
926,9.205465264648929
927,0.6588406006136812
646,0.3333333333333333
648,0.0
2,1, 1, 1, 0, 1,30.00,45.00,Tuesday
6,7.075
239,1.0224153911753744
312,22.124379039457304
313,40.73866929718898
349,47.53577611189202
350,9.379505550823778
599,0.0
600,0.0
603,27.258030320746369
604,27.258030320748774
645,0.14897746462351958
647,0.020162194085365759
649,0.3733333333333333
650,0.5599999999999998
662,18.355698415658155
663,0.0
726,0.021502502259305064
727,0.0
730,8.0
731,0.002799263516499702
734,2.779228542000899
735,0.004413592187954316
737,0.0
739,0.0
741,0.0
743,0.0
892,15.004022970539922
893,3.19970708950559
894,7.075
895,1.170597647764144
896,7.075
897,0.6333514100381745
898,15.49117764624203
899,21.635102133333335
900,14.146521947356412
901,21.635102133333335
902,14.146521947356412
903,21.635102133333335
904,14.146521947356412
905,21.635102133333335
906,32.63390580376047
907,4.747188742655652
908,7.075
909,1.0468518667513558
910,7.075
911,0.052215891645591237
912,36.65843208155846
913,38.2178208
914,36.29763503437698
915,38.2178208
916,36.29763503437698
917,38.2178208
918,36.29379911925142
919,38.2178208
920,22.03503086472525
921,3.19970708950559
922,16.67149925750673
923,3.19970708950559
924,17.022329407199029
925,37.98265485092408
926,9.546539984349004
927,0.6333514100381745
646,0.3333333333333333
648,0.13333333333333334
2,1, 1, 1, 0, 1,45.00,60.00,Tuesday
6,7.2
239,1.0126505168660976
312,23.29399793880569
313,41.51291102249644
349,51.04195050069873
350,8.447536160436478
599,0.0
600,0.0
603,43.53795032238321
604,43.537950322384869
645,0.0894899408133997
647,0.010574780284002029
649,0.6066666666666665
650,0.18666666666666666
662,38.83913520236608
663,0.0
726,0.0
727,0.0
730,8.0
731,0.003099413777218291
734,2.886992691322365
735,0.003984081793544427
737,0.0
739,0.0
741,0.0
743,0.0
892,18.14080322848961
893,3.373551912344513
894,7.200000000000003
895,0.4394929993497233
896,7.200000000000003
897,0.5447912097813434
898,19.39988002218374
899,27.19561886666667
900,18.544448270970198
901,27.19561886666667
902,18.544448270970198
903,27.19561886666667
904,18.544448270970198
905,27.19561886666667
906,33.948071427221687
907,4.773343675988985
908,7.200000000000003
909,1.4265142432412364
910,7.200000000000003
911,0.020190918925707948
912,37.15789424223689
913,38.42805033333334
914,37.01490459205129
915,38.42805033333334
916,37.01490459205129
917,38.42805033333334
918,37.00745578164386
919,38.42805033333334
920,23.1474842811673
921,3.373551912344513
922,20.62731527199907
923,3.373551912344513
924,20.982744074952167
925,38.45212175973049
926,9.711269519278917
927,0.5447912097813434
646,0.26666666666666669
648,0.13333333333333334
2,1, 1, 1, 0, 1, 0.00,60.00,Tuesday
133,12150.668122765426
134,8433.242281771343
135,2058.3910404536764
136,13936.849545599995
137,10219.334400000002
138,2058.3910404536764
139,22642.301444990448
173,3.086544080772514
174,14.038733222169772
175,7.476415376754454
176,0.651357755793032
177,21.95288258691692
178,0.09978913944638235
179,1.0
180,0.0
181,0.0
182,0.0
183,0.0
184,0.0
185,1.0
186,0.0
187,0.0
188,0.0
189,0.0
190,0.0
191,-19.348642244206969
192,12150.668122765426
193,8433.242281771343
194,2058.3910404536764
195,13936.849545599995
196,10219.334400000002
197,2058.3910404536764
198,22642.301444990448
199,42059.58808174663
200,37911.42800634632
201,7997.101608809295
202,15546.354479999996
203,11399.520000000002
204,7997.101608809295
205,87968.11769690225
209,13.051738850778616
210,27.791371394138069
211,5.0305265081431849
212,0.272379532579722
213,35.23496410002846
214,0.10039184849101211
215,1.0
216,0.5
217,0.0
218,0.0
219,0.0
220,0.0
221,1.0
222,0.7120923349219979
223,0.0
224,0.0
225,0.0
226,0.0
227,-19.727620467420278
228,42059.58808174663
229,37911.42800634632
230,7997.101608809295
231,15546.354479999996
232,11399.520000000002
233,7997.101608809295
234,87968.11769690225
315,20.0
316,23.0
352,20.0
353,23.0
387,0.0
388,0.0
422,0.0
423,0.0
525,0.0
526,0.0
527,0.25
528,0.0
529,0.0
530,0.0
531,1.0
532,0.0
533,0.0
534,0.0
535,0.0
536,0.0
537,0.0
538,0.0
539,0.0
540,0.0
314,4.0
351,4.0
386,0.0
421,0.0
517,110638.81914189269
518,3627.928818781664
519,114266.74796067435
520,0.0
521,0.016666666666666668
522,0.03333333333333333
523,0.03333333333333333
524,0.08333333333333334
541,0.5966368802566384
542,0.4
543,0.7970433920164742
544,0.6749635089898347
545,0.4
546,0.5384829822138415
605,1343.693231081882
606,0.3429468832765157
607,1209.3239079736938
608,4837295.631894776
639,3.7218813237639747
640,1634.275514655025
641,0.3230371183839006
642,1470.8479631895225
643,5883391.852758089
644,4.717331124823695
766,3.580872807174014
788,10.205936229555697
789,9.831691791830274
790,4.099483725118648
802,9.934878905623459
803,9.934916257681082
2,1, 1, 1, 0, 2, 0.00,15.00,Tuesday
6,7.2
239,1.0241427594325059
312,24.32061190025131
313,41.26452460093464
349,54.05725497387077
350,7.487225248903017
599,0.0
600,0.0
603,15.577271120067053
604,15.577271120064563
645,0.10929775731930835
647,0.005019778127159331
649,0.46666666666666659
650,0.41999999999999995
662,16.09571333559349
663,0.0
726,0.0
727,0.0
730,10.339891173614947
731,0.0037033996012357506
734,3.329863202918242
735,0.0045413317647225
737,0.0
739,0.0
741,0.0
743,0.0
892,16.24065666422543
893,3.8465952246890264
894,7.200000000000003
895,1.5307329095338449
896,7.200000000000003
897,0.4986345566201402
898,15.864613078171688
899,19.052661400000006
900,15.138697653807668
901,19.052661400000006
902,15.138697653807668
903,19.052661400000006
904,15.138697653807668
905,19.052661400000006
906,32.713086344405429
907,4.442176137994492
908,7.200000000000003
909,1.7151265242080085
910,7.200000000000003
911,0.0030028500565799488
912,35.37059327294091
913,36.58584853333334
914,35.31433155032007
915,36.58584853333334
916,35.31433155032007
917,36.58584853333334
918,35.30896346334083
919,36.58584853333334
920,24.250398637172198
921,3.8465952246890264
922,17.15945861501494
923,3.8465952246890264
924,17.5141783443478
925,36.69030102262339
926,9.422825395687495
927,0.4986345566201402
646,0.3333333333333333
648,0.06666666666666667
2,1, 1, 1, 0, 2,15.00,30.00,Tuesday
6,7.2
239,1.0136992406239243
312,23.681642478372994
313,40.80339540634756
349,46.47920951350953
350,10.896342263394406
599,0.0
600,0.0
603,19.901000814922367
604,19.901000814923628
645,0.20218193049211803
647,0.04914709516037045
649,0.41999999999999995
650,0.13999999999999999
662,335.9906468730618
663,0.0
726,2.434740919216315
727,0.0
730,8.739535820010398
731,0.004011293679209905
734,0.0
735,0.0
737,2879.452920182337
739,177.7114657298252
741,0.0
743,0.0
892,14.613753756495829
893,3.073661956172257
894,7.200000000000003
895,0.9073713161191548
896,7.200000000000003
897,2.2906641778922518
898,16.391361391423666
899,22.018060266666664
900,14.34672705864329
901,22.018060266666664
902,14.302552188627475
903,22.018060266666664
904,14.302552188627475
905,22.018060266666664
906,34.490595543560257
907,5.59534744498623
908,7.200000000000003
909,1.2624762130935475
910,7.200000000000003
911,0.2843706621379694
912,38.40645230235193
913,38.406526400000007
914,36.81514601886141
915,38.406526400000007
916,36.81514601886141
917,38.406526400000007
918,36.811883710523279
919,38.406526400000007
920,23.730058216154114
921,3.073661956172257
922,17.77545647226609
923,3.073661956172257
924,18.148121174663126
925,38.40645230235193