Program Version,EnergyPlus, Version 8.8.0-Unknown, YMD=2019.07.12 13:22
1,5,Environment Title[],Latitude[deg],Longitude[deg],Time Zone[],Elevation[m]
2,6,Day of Simulation[],Month[],Day of Month[],DST Indicator[1=yes 0=no],Hour[],StartMinute[],EndMinute[],DayType
3,3,Cumulative Day of Simulation[],Month[],Day of Month[],DST Indicator[1=yes 0=no],DayType  ! When Daily Report Variables Requested
4,2,Cumulative Days of Simulation[],Month[]  ! When Monthly Report Variables Requested
5,1,Cumulative Days of Simulation[] ! When Run Period Report Variables Requested
6,1,Environment,Site Outdoor Air Drybulb Temperature [C] !TimeStep
133,1,WESTDATACENTER_EQUIP,ITE CPU Electric Power [W] !Hourly
134,1,WESTDATACENTER_EQUIP,ITE Fan Electric Power [W] !Hourly
135,1,WESTDATACENTER_EQUIP,ITE UPS Electric Power [W] !Hourly
136,1,WESTDATACENTER_EQUIP,ITE CPU Electric Power at Design Inlet Conditions [W] !Hourly
137,1,WESTDATACENTER_EQUIP,ITE Fan Electric Power at Design Inlet Conditions [W] !Hourly
138,1,WESTDATACENTER_EQUIP,ITE UPS Heat Gain to Zone Rate [W] !Hourly
139,1,WESTDATACENTER_EQUIP,ITE Total Heat Gain to Zone Rate [W] !Hourly
173,1,WESTDATACENTER_EQUIP,ITE Standard Density Air Volume Flow Rate [m3/s] !Hourly
174,1,WESTDATACENTER_EQUIP,ITE Air Inlet Dry-Bulb Temperature [C] !Hourly
175,1,WESTDATACENTER_EQUIP,ITE Air Inlet Dewpoint Temperature [C] !Hourly
176,1,WESTDATACENTER_EQUIP,ITE Air Inlet Relative Humidity [%] !Hourly
177,1,WESTDATACENTER_EQUIP,ITE Air Outlet Dry-Bulb Temperature [C] !Hourly
178,1,WESTDATACENTER_EQUIP,ITE Supply Heat Index [] !Hourly
179,1,WESTDATACENTER_EQUIP,ITE Air Inlet Operating Range Exceeded Time [hr] !Hourly
180,1,WESTDATACENTER_EQUIP,ITE Air Inlet Dry-Bulb Temperature Above Operating Range Time [hr] !Hourly
181,1,WESTDATACENTER_EQUIP,ITE Air Inlet Dry-Bulb Temperature Below Operating Range Time [hr] !Hourly
182,1,WESTDATACENTER_EQUIP,ITE Air Inlet Dewpoint Temperature Above Operating Range Time [hr] !Hourly
183,1,WESTDATACENTER_EQUIP,ITE Air Inlet Dewpoint Temperature Below Operating Range Time [hr] !Hourly
184,1,WESTDATACENTER_EQUIP,ITE Air Inlet Relative Humidity Above Operating Range Time [hr] !Hourly
185,1,WESTDATACENTER_EQUIP,ITE Air Inlet Relative Humidity Below Operating Range Time [hr] !Hourly
186,1,WESTDATACENTER_EQUIP,ITE Air Inlet Dry-Bulb Temperature Difference Above Operating Range [deltaC] !Hourly
187,1,WESTDATACENTER_EQUIP,ITE Air Inlet Dry-Bulb Temperature Difference Below Operating Range [deltaC] !Hourly
188,1,WESTDATACENTER_EQUIP,ITE Air Inlet Dewpoint Temperature Difference Above Operating Range [deltaC] !Hourly
189,1,WESTDATACENTER_EQUIP,ITE Air Inlet Dewpoint Temperature Difference Below Operating Range [deltaC] !Hourly
190,1,WESTDATACENTER_EQUIP,ITE Air Inlet Relative Humidity Difference Above Operating Range [%] !Hourly
191,1,WESTDATACENTER_EQUIP,ITE Air Inlet Relative Humidity Difference Below Operating Range [%] !Hourly
192,1,WEST ZONE,Zone ITE CPU Electric Power [W] !Hourly
193,1,WEST ZONE,Zone ITE Fan Electric Power [W] !Hourly
194,1,WEST ZONE,Zone ITE UPS Electric Power [W] !Hourly
195,1,WEST ZONE,Zone ITE CPU Electric Power at Design Inlet Conditions [W] !Hourly
196,1,WEST ZONE,Zone ITE Fan Electric Power at Design Inlet Conditions [W] !Hourly
197,1,WEST ZONE,Zone ITE UPS Heat Gain to Zone Rate [W] !Hourly
198,1,WEST ZONE,Zone ITE Total Heat Gain to Zone Rate [W] !Hourly
199,1,EASTDATACENTER_EQUIP,ITE CPU Electric Power [W] !Hourly
200,1,EASTDATACENTER_EQUIP,ITE Fan Electric Power [W] !Hourly
201,1,EASTDATACENTER_EQUIP,ITE UPS Electric Power [W] !Hourly
202,1,EASTDATACENTER_EQUIP,ITE CPU Electric Power at Design Inlet Conditions [W] !Hourly
203,1,EASTDATACENTER_EQUIP,ITE Fan Electric Power at Design Inlet Conditions [W] !Hourly
204,1,EASTDATACENTER_EQUIP,ITE UPS Heat Gain to Zone Rate [W] !Hourly
205,1,EASTDATACENTER_EQUIP,ITE Total Heat Gain to Zone Rate [W] !Hourly
209,1,EASTDATACENTER_EQUIP,ITE Standard Density Air Volume Flow Rate [m3/s] !Hourly
210,1,EASTDATACENTER_EQUIP,ITE Air Inlet Dry-Bulb Temperature [C] !Hourly
211,1,EASTDATACENTER_EQUIP,ITE Air Inlet Dewpoint Temperature [C] !Hourly
212,1,EASTDATACENTER_EQUIP,ITE Air Inlet Relative Humidity [%] !Hourly
213,1,EASTDATACENTER_EQUIP,ITE Air Outlet Dry-Bulb Temperature [C] !Hourly
214,1,EASTDATACENTER_EQUIP,ITE Supply Heat Index [] !Hourly
215,1,EASTDATACENTER_EQUIP,ITE Air Inlet Operating Range Exceeded Time [hr] !Hourly
216,1,EASTDATACENTER_EQUIP,ITE Air Inlet Dry-Bulb Temperature Above Operating Range Time [hr] !Hourly
217,1,EASTDATACENTER_EQUIP,ITE Air Inlet Dry-Bulb Temperature Below Operating Range Time [hr] !Hourly
218,1,EASTDATACENTER_EQUIP,ITE Air Inlet Dewpoint Temperature Above Operating Range Time [hr] !Hourly
219,1,EASTDATACENTER_EQUIP,ITE Air Inlet Dewpoint Temperature Below Operating Range Time [hr] !Hourly
220,1,EASTDATACENTER_EQUIP,ITE Air Inlet Relative Humidity Above Operating Range Time [hr] !Hourly
221,1,EASTDATACENTER_EQUIP,ITE Air Inlet Relative Humidity Below Operating Range Time [hr] !Hourly
222,1,EASTDATACENTER_EQUIP,ITE Air Inlet Dry-Bulb Temperature Difference Above Operating Range [deltaC] !Hourly
223,1,EASTDATACENTER_EQUIP,ITE Air Inlet Dry-Bulb Temperature Difference Below Operating Range [deltaC] !Hourly
224,1,EASTDATACENTER_EQUIP,ITE Air Inlet Dewpoint Temperature Difference Above Operating Range [deltaC] !Hourly
225,1,EASTDATACENTER_EQUIP,ITE Air Inlet Dewpoint Temperature Difference Below Operating Range [deltaC] !Hourly
226,1,EASTDATACENTER_EQUIP,ITE Air Inlet Relative Humidity Difference Above Operating Range [%] !Hourly
227,1,EASTDATACENTER_EQUIP,ITE Air Inlet Relative Humidity Difference Below Operating Range [%] !Hourly
228,1,EAST ZONE,Zone ITE CPU Electric Power [W] !Hourly
229,1,EAST ZONE,Zone ITE Fan Electric Power [W] !Hourly
230,1,EAST ZONE,Zone ITE UPS Electric Power [W] !Hourly
231,1,EAST ZONE,Zone ITE CPU Electric Power at Design Inlet Conditions [W] !Hourly
232,1,EAST ZONE,Zone ITE Fan Electric Power at Design Inlet Conditions [W] !Hourly
233,1,EAST ZONE,Zone ITE UPS Heat Gain to Zone Rate [W] !Hourly
234,1,EAST ZONE,Zone ITE Total Heat Gain to Zone Rate [W] !Hourly
239,1,EMS,Power Utilization Effectiveness [] !TimeStep
312,1,WEST ZONE,Zone Air Temperature [C] !TimeStep
313,1,WEST ZONE,Zone Air Relative Humidity [%] !TimeStep
314,1,WEST ZONE,Zone Thermostat Control Type [] !Hourly
315,1,WEST ZONE,Zone Thermostat Heating Setpoint Temperature [C] !Hourly
316,1,WEST ZONE,Zone Thermostat Cooling Setpoint Temperature [C] !Hourly
349,1,EAST ZONE,Zone Air Temperature [C] !TimeStep
350,1,EAST ZONE,Zone Air Relative Humidity [%] !TimeStep
351,1,EAST ZONE,Zone Thermostat Control Type [] !Hourly
352,1,EAST ZONE,Zone Thermostat Heating Setpoint Temperature [C] !Hourly
353,1,EAST ZONE,Zone Thermostat Cooling Setpoint Temperature [C] !Hourly
386,1,WEST PLENUM,Zone Thermostat Control Type [] !Hourly
387,1,WEST PLENUM,Zone Thermostat Heating Setpoint Temperature [C] !Hourly
388,1,WEST PLENUM,Zone Thermostat Cooling Setpoint Temperature [C] !Hourly
421,1,EAST PLENUM,Zone Thermostat Control Type [] !Hourly
422,1,EAST PLENUM,Zone Thermostat Heating Setpoint Temperature [C] !Hourly
423,1,EAST PLENUM,Zone Thermostat Cooling Setpoint Temperature [C] !Hourly
517,1,Whole Building,Facility Total Building Electric Demand Power [W] !Hourly
518,1,Whole Building,Facility Total HVAC Electric Demand Power [W] !Hourly
519,1,Whole Building,Facility Total Electric Demand Power [W] !Hourly
520,1,WEST ZONE,Zone Oscillating Temperatures Time [hr] !Hourly
521,1,EAST ZONE,Zone Oscillating Temperatures Time [hr] !Hourly
522,1,WEST PLENUM,Zone Oscillating Temperatures Time [hr] !Hourly
523,1,EAST PLENUM,Zone Oscillating Temperatures Time [hr] !Hourly
524,1,Facility,Facility Any Zone Oscillating Temperatures Time [hr] !Hourly
525,1,WEST ZONE,Zone Heating Setpoint Not Met Time [hr] !Hourly
526,1,WEST ZONE,Zone Heating Setpoint Not Met While Occupied Time [hr] !Hourly
527,1,WEST ZONE,Zone Cooling Setpoint Not Met Time [hr] !Hourly
528,1,WEST ZONE,Zone Cooling Setpoint Not Met While Occupied Time [hr] !Hourly
529,1,EAST ZONE,Zone Heating Setpoint Not Met Time [hr] !Hourly
530,1,EAST ZONE,Zone Heating Setpoint Not Met While Occupied Time [hr] !Hourly
531,1,EAST ZONE,Zone Cooling Setpoint Not Met Time [hr] !Hourly
532,1,EAST ZONE,Zone Cooling Setpoint Not Met While Occupied Time [hr] !Hourly
533,1,WEST PLENUM,Zone Heating Setpoint Not Met Time [hr] !Hourly
534,1,WEST PLENUM,Zone Heating Setpoint Not Met While Occupied Time [hr] !Hourly
535,1,WEST PLENUM,Zone Cooling Setpoint Not Met Time [hr] !Hourly
536,1,WEST PLENUM,Zone Cooling Setpoint Not Met While Occupied Time [hr] !Hourly
537,1,EAST PLENUM,Zone Heating Setpoint Not Met Time [hr] !Hourly
538,1,EAST PLENUM,Zone Heating Setpoint Not Met While Occupied Time [hr] !Hourly
539,1,EAST PLENUM,Zone Cooling Setpoint Not Met Time [hr] !Hourly
540,1,EAST PLENUM,Zone Cooling Setpoint Not Met While Occupied Time [hr] !Hourly
541,1,WEST ZONE VAV SYSTEM,Zone Air Terminal VAV Damper Position [] !Hourly
542,1,WEST ZONE VAV SYSTEM,Zone Air Terminal Minimum Air Flow Fraction [] !Hourly
543,1,WEST ZONE VAV SYSTEM,Zone Air Terminal Outdoor Air Volume Flow Rate [m3/s] !Hourly
544,1,EAST ZONE VAV SYSTEM,Zone Air Terminal VAV Damper Position [] !Hourly
545,1,EAST ZONE VAV SYSTEM,Zone Air Terminal Minimum Air Flow Fraction [] !Hourly
546,1,EAST ZONE VAV SYSTEM,Zone Air Terminal Outdoor Air Volume Flow Rate [m3/s] !Hourly
599,1,WEST ZONE CW COOLING COIL,Cooling Coil Total Cooling Rate [W] !TimeStep
600,1,WEST ZONE CW COOLING COIL,Cooling Coil Sensible Cooling Rate [W] !TimeStep
603,1,EAST ZONE CW COOLING COIL,Cooling Coil Total Cooling Rate [W] !TimeStep
604,1,EAST ZONE CW COOLING COIL,Cooling Coil Sensible Cooling Rate [W] !TimeStep
605,1,WEST ZONE SUPPLY FAN,Fan Electric Power [W] !Hourly
606,1,WEST ZONE SUPPLY FAN,Fan Rise in Air Temperature [deltaC] !Hourly
607,1,WEST ZONE SUPPLY FAN,Fan Heat Gain to Air [W] !Hourly
608,1,WEST ZONE SUPPLY FAN,Fan Electric Energy [J] !Hourly
639,1,WEST ZONE SUPPLY FAN,Fan Air Mass Flow Rate [kg/s] !Hourly
640,1,EAST ZONE SUPPLY FAN,Fan Electric Power [W] !Hourly
641,1,EAST ZONE SUPPLY FAN,Fan Rise in Air Temperature [deltaC] !Hourly
642,1,EAST ZONE SUPPLY FAN,Fan Heat Gain to Air [W] !Hourly
643,1,EAST ZONE SUPPLY FAN,Fan Electric Energy [J] !Hourly
644,1,EAST ZONE SUPPLY FAN,Fan Air Mass Flow Rate [kg/s] !Hourly
645,1,WEST DATA CENTER IEC,Evaporative Cooler Total Stage Effectiveness [] !TimeStep
646,1,WEST DATA CENTER IEC,Evaporative Cooler Operating Mode Status [] !TimeStep
647,1,EAST DATA CENTER IEC,Evaporative Cooler Total Stage Effectiveness [] !TimeStep
648,1,EAST DATA CENTER IEC,Evaporative Cooler Operating Mode Status [] !TimeStep
649,1,WEST DATA CENTER DEC,Evaporative Cooler Stage Effectiveness [] !TimeStep
650,1,EAST DATA CENTER DEC,Evaporative Cooler Stage Effectiveness [] !TimeStep
662,1,WEST DATA CENTER IEC,Evaporative Cooler Electric Power [W] !TimeStep
663,1,WEST DATA CENTER IEC,Evaporative Cooler Water Volume [m3] !TimeStep
726,1,EAST DATA CENTER IEC,Evaporative Cooler Electric Power [W] !TimeStep
727,1,EAST DATA CENTER IEC,Evaporative Cooler Water Volume [m3] !TimeStep
730,1,WEST DATA CENTER DEC,Evaporative Cooler Electric Power [W] !TimeStep
731,1,WEST DATA CENTER DEC,Evaporative Cooler Water Volume [m3] !TimeStep
734,1,EAST DATA CENTER DEC,Evaporative Cooler Electric Power [W] !TimeStep
735,1,EAST DATA CENTER DEC,Evaporative Cooler Water Volume [m3] !TimeStep
737,1,WEST DX COOLING COIL,Cooling Coil Total Cooling Rate [W] !TimeStep
739,1,WEST DX COOLING COIL,Cooling Coil Sensible Cooling Rate [W] !TimeStep
741,1,EAST DX COOLING COIL,Cooling Coil Total Cooling Rate [W] !TimeStep
743,1,EAST DX COOLING COIL,Cooling Coil Sensible Cooling Rate [W] !TimeStep
766,1,CHILLER,Chiller Evaporator Cooling Rate [W] !Hourly
788,1,CHILLER,Chiller Evaporator Inlet Temperature [C] !Hourly
789,1,CHILLER,Chiller Evaporator Outlet Temperature [C] !Hourly
790,1,CHILLER,Chiller Condenser Heat Transfer Rate [W] !Hourly
802,1,CHILLER,Chiller Condenser Inlet Temperature [C] !Hourly
803,1,CHILLER,Chiller Condenser Outlet Temperature [C] !Hourly
892,1,WEST ZONE INLET NODE,System Node Temperature [C] !TimeStep
893,1,WEST ZONE INLET NODE,System Node Mass Flow Rate [kg/s] !TimeStep
894,1,WEST OUTSIDE AIR INLET NODE,System Node Temperature [C] !TimeStep
895,1,WEST OUTSIDE AIR INLET NODE,System Node Mass Flow Rate [kg/s] !TimeStep
896,1,WEST IEC SECONDARY AIR INLET NODE,System Node Temperature [C] !TimeStep
897,1,WEST IEC SECONDARY AIR INLET NODE,System Node Mass Flow Rate [kg/s] !TimeStep
898,1,WEST ZONE DEC OUTLET NODE,System Node Temperature [C] !TimeStep
899,1,WEST ZONE DEC OUTLET NODE,System Node Setpoint Temperature [C] !TimeStep
900,1,WEST ZONE IEC OUTLET NODE,System Node Temperature [C] !TimeStep
901,1,WEST ZONE IEC OUTLET NODE,System Node Setpoint Temperature [C] !TimeStep
902,1,WEST ZONE CCOIL AIR OUTLET NODE,System Node Temperature [C] !TimeStep
903,1,WEST ZONE CCOIL AIR OUTLET NODE,System Node Setpoint Temperature [C] !TimeStep
904,1,WEST AIR LOOP OUTLET NODE,System Node Temperature [C] !TimeStep
905,1,WEST AIR LOOP OUTLET NODE,System Node Setpoint Temperature [C] !TimeStep
906,1,EAST ZONE INLET NODE,System Node Temperature [C] !TimeStep
907,1,EAST ZONE INLET NODE,System Node Mass Flow Rate [kg/s] !TimeStep
908,1,EAST OUTSIDE AIR INLET NODE,System Node Temperature [C] !TimeStep
909,1,EAST OUTSIDE AIR INLET NODE,System Node Mass Flow Rate [kg/s] !TimeStep
910,1,EAST IEC SECONDARY AIR INLET NODE,System Node Temperature [C] !TimeStep
911,1,EAST IEC SECONDARY AIR INLET NODE,System Node Mass Flow Rate [kg/s] !TimeStep
912,1,EAST ZONE DEC OUTLET NODE,System Node Temperature [C] !TimeStep
913,1,EAST ZONE DEC OUTLET NODE,System Node Setpoint Temperature [C] !TimeStep
914,1,EAST ZONE IEC OUTLET NODE,System Node Temperature [C] !TimeStep
915,1,EAST ZONE IEC OUTLET NODE,System Node Setpoint Temperature [C] !TimeStep
916,1,EAST ZONE CCOIL AIR OUTLET NODE,System Node Temperature [C] !TimeStep
917,1,EAST ZONE CCOIL AIR OUTLET NODE,System Node Setpoint Temperature [C] !TimeStep
918,1,EAST AIR LOOP OUTLET NODE,System Node Temperature [C] !TimeStep
919,1,EAST AIR LOOP OUTLET NODE,System Node Setpoint Temperature [C] !TimeStep
920,1,WEST ZONE RETURN AIR NODE,System Node Temperature [C] !TimeStep
921,1,WEST ZONE RETURN AIR NODE,System Node Mass Flow Rate [kg/s] !TimeStep
922,1,WEST ZONE MIXED AIR NODE,System Node Temperature [C] !TimeStep
923,1,WEST ZONE MIXED AIR NODE,System Node Mass Flow Rate [kg/s] !TimeStep
924,1,WEST ZONE SUPPLY FAN OUTLET NODE,System Node Temperature [C] !TimeStep
925,1,EAST ZONE SUPPLY FAN OUTLET NODE,System Node Temperature [C] !TimeStep
926,1,WEST IEC SECONDARY AIR OUTLET NODE,System Node Temperature [C] !TimeStep
927,1,WEST IEC SECONDARY AIR OUTLET NODE,System Node Mass Flow Rate [kg/s] !TimeStep
End of Data Dictionary
1,WHOLEYEARDAY,  37.62,-122.40,  -8.00,   2.00
2,1, 1, 1, 0, 1, 0.00,15.00,Tuesday
6,6.825
239,1.0300298866314462
312,22.17342834747159
313,31.974292173053227
349,23.955364421636959
350,27.13820687218266
599,0.0
600,0.0
603,0.0
604,0.0
645,0.15958715021484155
647,0.0
649,0.27999999999999999
650,0.6999999999999997
662,1.799302993064713
663,0.0
726,0.0
727,0.0
730,9.072092464485586
731,0.0018096847430139495
734,0.0
735,0.0
737,0.0
739,0.0
741,0.0
743,0.0
892,13.76910309081903
893,2.1216448
894,6.825
895,1.1150586339132829
896,6.825
897,0.32539580449100066
898,13.314277039431126
899,15.531599199999999
900,12.2869445897155
901,15.531599199999999
902,12.2869445897155
903,15.531599199999999
904,12.2869445897155
905,15.531599199999999
906,22.024958183223839
907,6.500529382980723
908,6.825
909,0.0
910,6.825
911,0.0
912,24.040258924047796
913,36.078873933333337
914,24.040258924047796
915,36.078873933333337
916,24.040258924047796
917,36.078873933333337
918,24.040258924047796
919,36.078873933333337
920,22.208394571258219
921,2.1216448
922,14.580688499904977
923,2.1216448
924,15.002627376651024
925,24.040258924047796
926,9.439799652401728
927,0.32539580449100066
646,0.39999999999999999
648,0.0
2,1, 1, 1, 0, 1,15.00,30.00,Tuesday
6,6.95
239,1.0811636704504815
312,24.022623484209907
313,31.477480294830678
349,34.73581530114494
350,15.262111522715396
599,0.0
600,0.0
603,0.0
604,0.0
645,0.14920591517121249
647,0.0
649,0.13999999999999999
650,0.6999999999999997
662,7.833465649282915
663,0.0
726,0.0
727,0.0
730,5.461024459283191
731,0.0017977953212234609
734,1.2419789809972675
735,0.002015678857185307
737,0.0
739,0.0
741,0.0
743,0.0
892,13.642891647810464
893,2.255271533333333
894,6.9499999999999979
895,1.2794014073695468
896,6.9499999999999979
897,0.4619468719128014
898,12.693809891482714
899,13.967179933333333
900,11.465583791846762
901,13.967179933333333
902,11.465583791846762
903,13.967179933333333
904,11.465583791846762
905,13.967179933333333
906,29.26939880013691
907,6.483630756639127
908,6.9499999999999979
909,0.3207535577282359
910,6.9499999999999979
911,0.0
912,31.937252334432178
913,36.901269533333337
914,31.937252334432178
915,36.901269533333337
916,31.937252334432178
917,36.901269533333337
918,31.937252334432178
919,36.901269533333337
920,23.842732437976357
921,2.255271533333333
922,13.43122343790889
923,2.255271533333333
924,13.834436393829036
925,32.4609437822726
926,8.478781610031473
927,0.4619468719128014
646,0.26666666666666669
648,0.0
2,1, 1, 1, 0, 1,30.00,45.00,Tuesday
6,7.075
239,1.0223839217517353
312,23.204273199058475
313,33.84939527051401
349,42.84444471573374
350,11.459168769842766
599,0.0
600,0.0
603,0.0
604,0.0
645,0.19719586823199992
647,0.013362337209747675
649,0.13999999999999999
650,0.6533333333333331
662,9.191357165147079
663,0.0
726,0.8854106452012621
727,0.0
730,5.0389765951663139
731,0.0011691583945731225
734,2.5588232241703969
735,0.004042128224084633
737,0.0
739,0.0
741,0.0
743,0.0
892,13.277570191868606
893,2.1821892666666669
894,7.075
895,1.4036159963607744
896,7.075
897,0.608614316290742
898,12.057169434425296
899,12.937752933333332
900,10.636947696627422
901,12.937752933333332
902,10.636947696627422
903,12.937752933333332
904,10.636947696627422
905,12.937752933333332
906,32.53737317672652
907,6.53263444964739
908,7.075
909,1.0108624953308177
910,7.075
911,0.10715176178783716
912,35.89749054661295
913,37.401159666666668
914,35.45763826145724
915,37.401159666666668
916,35.45763826145724
917,37.401159666666668
918,35.45763826145724
919,37.401159666666668
920,23.311496246318887
921,2.1821892666666669
922,12.524950587614338
923,2.1821892666666669
924,12.929922813828851
925,37.07101513934936
926,9.43620931505198
927,0.608614316290742
646,0.39999999999999999
648,0.06666666666666667
2,1, 1, 1, 0, 1,45.00,60.00,Tuesday
6,7.2
239,1.0275243754643753
312,21.9966272696542
313,36.437125457949679
349,43.74207245041215
350,12.760615435746838
599,0.0
600,0.0
603,15.131103074685873
604,15.131103074684951
645,0.19801206146089835
647,0.05309045906064332
649,0.2333333333333333
650,0.32666666666666668
662,3.6724924474811599
663,0.0
726,3.0051520866906036
727,0.0
730,8.128194548210266
731,0.0014923270224927784
734,2.870101430705364
735,0.0037939272621994367
737,0.0
739,0.0
741,0.0
743,0.0
892,13.451646848181543
893,2.2345844666666667
894,7.200000000000003
895,1.3381741059345885
896,7.200000000000003
897,0.44556063403795556
898,12.702902025973213
899,14.350169999999999
900,11.263334192516382
901,14.350169999999999
902,11.263334192516382
903,14.350169999999999
904,11.263334192516382
905,14.350169999999999
906,32.19851252615496
907,6.047948573658405
908,7.200000000000003
909,1.0943459906364342
910,7.200000000000003
911,0.30028348105485505
912,35.84705812026137
913,37.1058274
914,34.55584945125166
915,37.1058274
916,34.55584945125166
917,37.1058274
918,34.55361085630979
919,37.1058274
920,22.022435463581993
921,2.2345844666666667
922,13.829984086579188
923,2.2345844666666667
924,14.239777547886194
925,37.10580740528097
926,9.593984134173052
927,0.44556063403795556
646,0.39999999999999999
648,0.26666666666666669
2,1, 1, 1, 0, 1, 0.00,60.00,Tuesday
133,12451.524048047544
134,8734.0831650093
135,2118.5607213056837
136,13936.849545599995
137,10219.334400000002
138,2118.5607213056837
139,23304.167934362526
173,3.197356792914233
174,14.200644438012631
175,5.643139047141057
176,0.5640482269440894
177,22.105088475910859
178,0.11150466322318649
179,1.0
180,0.0
181,0.0
182,0.0
183,0.0
184,0.0
185,1.0
186,0.0
187,0.0
188,0.0
189,0.0
190,0.0
191,-19.435951773055913
192,12451.524048047544
193,8734.0831650093
194,2118.5607213056837
195,13936.849545599995
196,10219.334400000002
197,2118.5607213056837
198,23304.167934362526
199,37768.104810835364
200,33620.15929887043
201,7138.826410970578
202,15546.354479999996
203,11399.520000000002
204,7138.826410970578
205,78527.09052067637
209,11.697160901122786
210,25.720935280063317
211,5.400441314271038
212,0.2978710409758508
213,33.13939521846993
214,0.0937496832924074
215,1.0
216,0.0
217,0.0
218,0.0
219,0.0
220,0.0
221,1.0
222,0.0
223,0.0
224,0.0
225,0.0
226,0.0
227,-19.702128959024149
228,37768.104810835364
229,33620.15929887043
230,7138.826410970578
231,15546.354479999996
232,11399.520000000002
233,7138.826410970578
234,78527.09052067637
315,20.0
316,23.0
352,20.0
353,23.0
387,0.0
388,0.0
422,0.0
423,0.0
525,0.0
526,0.0
527,0.5
528,0.0
529,0.0
530,0.0
531,1.0
532,0.0
533,0.0
534,0.0
535,0.0
536,0.0
537,0.0
538,0.0
539,0.0
540,0.0
314,4.0
351,4.0
386,0.0
421,0.0
517,101859.65845503888
518,3491.8085145415703
519,105351.46696958045
520,0.0
521,0.0
522,0.03333333333333333
523,0.06666666666666667
524,0.1
541,0.35241853184707497
542,0.4
543,1.066476581763499
544,0.9144613922091951
545,0.4
546,0.5037199582429117
605,967.7958442078525
606,0.409979380046926
607,871.016259787067
608,3484065.039148269
639,2.1984225166666668
640,2160.4890592335246
641,0.29803775265856449
642,1944.4401533101727
643,7777760.613240688
644,6.391185790731411
766,0.7964440690408146
788,10.20448764317872
789,9.990813418926578
790,0.9117814657057177
802,9.934380902338529
803,9.934389209867494
2,1, 1, 1, 0, 2, 0.00,15.00,Tuesday
6,7.2
239,1.0189641147913802
312,23.369161931091779
313,36.07958336504226
349,48.665502490162989
350,9.559747395248176
599,0.0
600,0.0
603,47.234010565114449
604,47.23401056511943
645,0.1817760633461954
647,0.06758830708391651
649,0.2333333333333333
650,0.3733333333333333
662,98.24052865806164
663,0.0
726,6.5524340769729438
727,0.0
730,7.38959720751804
731,0.0014692005888645274
734,0.30511126713971639
735,0.00044940309035383966
737,0.0
739,0.0
741,0.0
743,0.0
892,13.236476330717183
893,2.1731188
894,7.200000000000003
895,1.325200779175198
896,7.200000000000003
897,0.8865165276857359
898,12.611305927274019
899,15.025578466666666
900,11.225886190475438
901,15.025578466666666
902,11.225886190475438
903,15.025578466666666
904,11.225886190475438
905,15.025578466666666
906,33.30292709061831
907,6.392703582980723
908,7.200000000000003
909,1.8614695856783357
910,7.200000000000003
911,0.40100813688212486
912,36.546039598459397
913,36.6738108
914,34.658637221850437
915,36.6738108
916,34.658637221850437
917,36.6738108
918,34.651918673890687
919,36.6738108
920,23.269896199429046
921,2.1731188
922,13.47710895340932
923,2.1731188
924,13.885958680530317
925,36.67662339855343
926,9.038929457259388
927,0.8865165276857359
646,0.39999999999999999
648,0.26666666666666669
2,1, 1, 1, 0, 2,15.00,30.00,Tuesday
6,7.2
239,1.022216601060438
312,23.128809157641134
313,36.89157676663791
349,46.90117238901529
350,9.96155345578407
599,0.0
600,0.0
603,33.57598285576479
604,33.57598285576194
645,0.2045071116810212
647,0.022937387446906954
649,0.27999999999999999
650,0.5133333333333332
662,4.70011086793015
663,0.0
726,0.11571818779515254
727,0.0
730,8.0
731,0.001493724329586995
734,2.334954999885876
735,0.0029437583963117738
737,0.0
739,0.0
741,0.0
743,0.0
892,13.54880350725994
893,2.2077791333333338
894,7.200000000000003
895,1.3067036841886582
896,7.200000000000003
897,0.5512394565014845
898,13.201555504760357
899,14.741680999999998
900,11.559933713017092
901,14.741680999999998
902,11.559933713017092
903,14.741680999999998
904,11.559933713017092
905,14.741680999999998
906,35.89859627855409
907,5.998849906991738
908,7.200000000000003
909,1.2967526260416349
910,7.200000000000003
911,0.08229048045476525
912,37.63257384321259
913,37.94110706666667
914,37.1899769180184
915,37.94110706666667
916,37.1899769180184
917,37.94110706666667
918,37.18511886700161
919,37.94110706666667
920,23.163638889171368
921,2.2077791333333338
922,14.340330700775933
923,2.2077791333333338
924,14.745357521730929
925,38.6543587578397
926,9.486173016659315
927,0.5512394565014845