Program Version,EnergyPlus, Version 8.8.0-Unknown, YMD=2019.07.12 14:02
1,5,Environment Title[],Latitude[deg],Longitude[deg],Time Zone[],Elevation[m]
2,6,Day of Simulation[],Month[],Day of Month[],DST Indicator[1=yes 0=no],Hour[],StartMinute[],EndMinute[],DayType
3,3,Cumulative Day of Simulation[],Month[],Day of Month[],DST Indicator[1=yes 0=no],DayType  ! When Daily Report Variables Requested
4,2,Cumulative Days of Simulation[],Month[]  ! When Monthly Report Variables Requested
5,1,Cumulative Days of Simulation[] ! When Run Period Report Variables Requested
6,1,Environment,Site Outdoor Air Drybulb Temperature [C] !TimeStep
133,1,WESTDATACENTER_EQUIP,ITE CPU Electric Power [W] !Hourly
134,1,WESTDATACENTER_EQUIP,ITE Fan Electric Power [W] !Hourly
135,1,WESTDATACENTER_EQUIP,ITE UPS Electric Power [W] !Hourly
136,1,WESTDATACENTER_EQUIP,ITE CPU Electric Power at Design Inlet Conditions [W] !Hourly
137,1,WESTDATACENTER_EQUIP,ITE Fan Electric Power at Design Inlet Conditions [W] !Hourly
138,1,WESTDATACENTER_EQUIP,ITE UPS Heat Gain to Zone Rate [W] !Hourly
139,1,WESTDATACENTER_EQUIP,ITE Total Heat Gain to Zone Rate [W] !Hourly
173,1,WESTDATACENTER_EQUIP,ITE Standard Density Air Volume Flow Rate [m3/s] !Hourly
174,1,WESTDATACENTER_EQUIP,ITE Air Inlet Dry-Bulb Temperature [C] !Hourly
175,1,WESTDATACENTER_EQUIP,ITE Air Inlet Dewpoint Temperature [C] !Hourly
176,1,WESTDATACENTER_EQUIP,ITE Air Inlet Relative Humidity [%] !Hourly
177,1,WESTDATACENTER_EQUIP,ITE Air Outlet Dry-Bulb Temperature [C] !Hourly
178,1,WESTDATACENTER_EQUIP,ITE Supply Heat Index [] !Hourly
179,1,WESTDATACENTER_EQUIP,ITE Air Inlet Operating Range Exceeded Time [hr] !Hourly
180,1,WESTDATACENTER_EQUIP,ITE Air Inlet Dry-Bulb Temperature Above Operating Range Time [hr] !Hourly
181,1,WESTDATACENTER_EQUIP,ITE Air Inlet Dry-Bulb Temperature Below Operating Range Time [hr] !Hourly
182,1,WESTDATACENTER_EQUIP,ITE Air Inlet Dewpoint Temperature Above Operating Range Time [hr] !Hourly
183,1,WESTDATACENTER_EQUIP,ITE Air Inlet Dewpoint Temperature Below Operating Range Time [hr] !Hourly
184,1,WESTDATACENTER_EQUIP,ITE Air Inlet Relative Humidity Above Operating Range Time [hr] !Hourly
185,1,WESTDATACENTER_EQUIP,ITE Air Inlet Relative Humidity Below Operating Range Time [hr] !Hourly
186,1,WESTDATACENTER_EQUIP,ITE Air Inlet Dry-Bulb Temperature Difference Above Operating Range [deltaC] !Hourly
187,1,WESTDATACENTER_EQUIP,ITE Air Inlet Dry-Bulb Temperature Difference Below Operating Range [deltaC] !Hourly
188,1,WESTDATACENTER_EQUIP,ITE Air Inlet Dewpoint Temperature Difference Above Operating Range [deltaC] !Hourly
189,1,WESTDATACENTER_EQUIP,ITE Air Inlet Dewpoint Temperature Difference Below Operating Range [deltaC] !Hourly
190,1,WESTDATACENTER_EQUIP,ITE Air Inlet Relative Humidity Difference Above Operating Range [%] !Hourly
191,1,WESTDATACENTER_EQUIP,ITE Air Inlet Relative Humidity Difference Below Operating Range [%] !Hourly
192,1,WEST ZONE,Zone ITE CPU Electric Power [W] !Hourly
193,1,WEST ZONE,Zone ITE Fan Electric Power [W] !Hourly
194,1,WEST ZONE,Zone ITE UPS Electric Power [W] !Hourly
195,1,WEST ZONE,Zone ITE CPU Electric Power at Design Inlet Conditions [W] !Hourly
196,1,WEST ZONE,Zone ITE Fan Electric Power at Design Inlet Conditions [W] !Hourly
197,1,WEST ZONE,Zone ITE UPS Heat Gain to Zone Rate [W] !Hourly
198,1,WEST ZONE,Zone ITE Total Heat Gain to Zone Rate [W] !Hourly
199,1,EASTDATACENTER_EQUIP,ITE CPU Electric Power [W] !Hourly
200,1,EASTDATACENTER_EQUIP,ITE Fan Electric Power [W] !Hourly
201,1,EASTDATACENTER_EQUIP,ITE UPS Electric Power [W] !Hourly
202,1,EASTDATACENTER_EQUIP,ITE CPU Electric Power at Design Inlet Conditions [W] !Hourly
203,1,EASTDATACENTER_EQUIP,ITE Fan Electric Power at Design Inlet Conditions [W] !Hourly
204,1,EASTDATACENTER_EQUIP,ITE UPS Heat Gain to Zone Rate [W] !Hourly
205,1,EASTDATACENTER_EQUIP,ITE Total Heat Gain to Zone Rate [W] !Hourly
209,1,EASTDATACENTER_EQUIP,ITE Standard Density Air Volume Flow Rate [m3/s] !Hourly
210,1,EASTDATACENTER_EQUIP,ITE Air Inlet Dry-Bulb Temperature [C] !Hourly
211,1,EASTDATACENTER_EQUIP,ITE Air Inlet Dewpoint Temperature [C] !Hourly
212,1,EASTDATACENTER_EQUIP,ITE Air Inlet Relative Humidity [%] !Hourly
213,1,EASTDATACENTER_EQUIP,ITE Air Outlet Dry-Bulb Temperature [C] !Hourly
214,1,EASTDATACENTER_EQUIP,ITE Supply Heat Index [] !Hourly
215,1,EASTDATACENTER_EQUIP,ITE Air Inlet Operating Range Exceeded Time [hr] !Hourly
216,1,EASTDATACENTER_EQUIP,ITE Air Inlet Dry-Bulb Temperature Above Operating Range Time [hr] !Hourly
217,1,EASTDATACENTER_EQUIP,ITE Air Inlet Dry-Bulb Temperature Below Operating Range Time [hr] !Hourly
218,1,EASTDATACENTER_EQUIP,ITE Air Inlet Dewpoint Temperature Above Operating Range Time [hr] !Hourly
219,1,EASTDATACENTER_EQUIP,ITE Air Inlet Dewpoint Temperature Below Operating Range Time [hr] !Hourly
220,1,EASTDATACENTER_EQUIP,ITE Air Inlet Relative Humidity Above Operating Range Time [hr] !Hourly
221,1,EASTDATACENTER_EQUIP,ITE Air Inlet Relative Humidity Below Operating Range Time [hr] !Hourly
222,1,EASTDATACENTER_EQUIP,ITE Air Inlet Dry-Bulb Temperature Difference Above Operating Range [deltaC] !Hourly
223,1,EASTDATACENTER_EQUIP,ITE Air Inlet Dry-Bulb Temperature Difference Below Operating Range [deltaC] !Hourly
224,1,EASTDATACENTER_EQUIP,ITE Air Inlet Dewpoint Temperature Difference Above Operating Range [deltaC] !Hourly
225,1,EASTDATACENTER_EQUIP,ITE Air Inlet Dewpoint Temperature Difference Below Operating Range [deltaC] !Hourly
226,1,EASTDATACENTER_EQUIP,ITE Air Inlet Relative Humidity Difference Above Operating Range [%] !Hourly
227,1,EASTDATACENTER_EQUIP,ITE Air Inlet Relative Humidity Difference Below Operating Range [%] !Hourly
228,1,EAST ZONE,Zone ITE CPU Electric Power [W] !Hourly
229,1,EAST ZONE,Zone ITE Fan Electric Power [W] !Hourly
230,1,EAST ZONE,Zone ITE UPS Electric Power [W] !Hourly
231,1,EAST ZONE,Zone ITE CPU Electric Power at Design Inlet Conditions [W] !Hourly
232,1,EAST ZONE,Zone ITE Fan Electric Power at Design Inlet Conditions [W] !Hourly
233,1,EAST ZONE,Zone ITE UPS Heat Gain to Zone Rate [W] !Hourly
234,1,EAST ZONE,Zone ITE Total Heat Gain to Zone Rate [W] !Hourly
239,1,EMS,Power Utilization Effectiveness [] !TimeStep
312,1,WEST ZONE,Zone Air Temperature [C] !TimeStep
313,1,WEST ZONE,Zone Air Relative Humidity [%] !TimeStep
314,1,WEST ZONE,Zone Thermostat Control Type [] !Hourly
315,1,WEST ZONE,Zone Thermostat Heating Setpoint Temperature [C] !Hourly
316,1,WEST ZONE,Zone Thermostat Cooling Setpoint Temperature [C] !Hourly
349,1,EAST ZONE,Zone Air Temperature [C] !TimeStep
350,1,EAST ZONE,Zone Air Relative Humidity [%] !TimeStep
351,1,EAST ZONE,Zone Thermostat Control Type [] !Hourly
352,1,EAST ZONE,Zone Thermostat Heating Setpoint Temperature [C] !Hourly
353,1,EAST ZONE,Zone Thermostat Cooling Setpoint Temperature [C] !Hourly
386,1,WEST PLENUM,Zone Thermostat Control Type [] !Hourly
387,1,WEST PLENUM,Zone Thermostat Heating Setpoint Temperature [C] !Hourly
388,1,WEST PLENUM,Zone Thermostat Cooling Setpoint Temperature [C] !Hourly
421,1,EAST PLENUM,Zone Thermostat Control Type [] !Hourly
422,1,EAST PLENUM,Zone Thermostat Heating Setpoint Temperature [C] !Hourly
423,1,EAST PLENUM,Zone Thermostat Cooling Setpoint Temperature [C] !Hourly
517,1,Whole Building,Facility Total Building Electric Demand Power [W] !Hourly
518,1,Whole Building,Facility Total HVAC Electric Demand Power [W] !Hourly
519,1,Whole Building,Facility Total Electric Demand Power [W] !Hourly
520,1,WEST ZONE,Zone Oscillating Temperatures Time [hr] !Hourly
521,1,EAST ZONE,Zone Oscillating Temperatures Time [hr] !Hourly
522,1,WEST PLENUM,Zone Oscillating Temperatures Time [hr] !Hourly
523,1,EAST PLENUM,Zone Oscillating Temperatures Time [hr] !Hourly
524,1,Facility,Facility Any Zone Oscillating Temperatures Time [hr] !Hourly
525,1,WEST ZONE,Zone Heating Setpoint Not Met Time [hr] !Hourly
526,1,WEST ZONE,Zone Heating Setpoint Not Met While Occupied Time [hr] !Hourly
527,1,WEST ZONE,Zone Cooling Setpoint Not Met Time [hr] !Hourly
528,1,WEST ZONE,Zone Cooling Setpoint Not Met While Occupied Time [hr] !Hourly
529,1,EAST ZONE,Zone Heating Setpoint Not Met Time [hr] !Hourly
530,1,EAST ZONE,Zone Heating Setpoint Not Met While Occupied Time [hr] !Hourly
531,1,EAST ZONE,Zone Cooling Setpoint Not Met Time [hr] !Hourly
532,1,EAST ZONE,Zone Cooling Setpoint Not Met While Occupied Time [hr] !Hourly
533,1,WEST PLENUM,Zone Heating Setpoint Not Met Time [hr] !Hourly
534,1,WEST PLENUM,Zone Heating Setpoint Not Met While Occupied Time [hr] !Hourly
535,1,WEST PLENUM,Zone Cooling Setpoint Not Met Time [hr] !Hourly
536,1,WEST PLENUM,Zone Cooling Setpoint Not Met While Occupied Time [hr] !Hourly
537,1,EAST PLENUM,Zone Heating Setpoint Not Met Time [hr] !Hourly
538,1,EAST PLENUM,Zone Heating Setpoint Not Met While Occupied Time [hr] !Hourly
539,1,EAST PLENUM,Zone Cooling Setpoint Not Met Time [hr] !Hourly
540,1,EAST PLENUM,Zone Cooling Setpoint Not Met While Occupied Time [hr] !Hourly
541,1,WEST ZONE VAV SYSTEM,Zone Air Terminal VAV Damper Position [] !Hourly
542,1,WEST ZONE VAV SYSTEM,Zone Air Terminal Minimum Air Flow Fraction [] !Hourly
543,1,WEST ZONE VAV SYSTEM,Zone Air Terminal Outdoor Air Volume Flow Rate [m3/s] !Hourly
544,1,EAST ZONE VAV SYSTEM,Zone Air Terminal VAV Damper Position [] !Hourly
545,1,EAST ZONE VAV SYSTEM,Zone Air Terminal Minimum Air Flow Fraction [] !Hourly
546,1,EAST ZONE VAV SYSTEM,Zone Air Terminal Outdoor Air Volume Flow Rate [m3/s] !Hourly
599,1,WEST ZONE CW COOLING COIL,Cooling Coil Total Cooling Rate [W] !TimeStep
600,1,WEST ZONE CW COOLING COIL,Cooling Coil Sensible Cooling Rate [W] !TimeStep
603,1,EAST ZONE CW COOLING COIL,Cooling Coil Total Cooling Rate [W] !TimeStep
604,1,EAST ZONE CW COOLING COIL,Cooling Coil Sensible Cooling Rate [W] !TimeStep
605,1,WEST ZONE SUPPLY FAN,Fan Electric Power [W] !Hourly
606,1,WEST ZONE SUPPLY FAN,Fan Rise in Air Temperature [deltaC] !Hourly
607,1,WEST ZONE SUPPLY FAN,Fan Heat Gain to Air [W] !Hourly
608,1,WEST ZONE SUPPLY FAN,Fan Electric Energy [J] !Hourly
639,1,WEST ZONE SUPPLY FAN,Fan Air Mass Flow Rate [kg/s] !Hourly
640,1,EAST ZONE SUPPLY FAN,Fan Electric Power [W] !Hourly
641,1,EAST ZONE SUPPLY FAN,Fan Rise in Air Temperature [deltaC] !Hourly
642,1,EAST ZONE SUPPLY FAN,Fan Heat Gain to Air [W] !Hourly
643,1,EAST ZONE SUPPLY FAN,Fan Electric Energy [J] !Hourly
644,1,EAST ZONE SUPPLY FAN,Fan Air Mass Flow Rate [kg/s] !Hourly
645,1,WEST DATA CENTER IEC,Evaporative Cooler Total Stage Effectiveness [] !TimeStep
646,1,WEST DATA CENTER IEC,Evaporative Cooler Operating Mode Status [] !TimeStep
647,1,EAST DATA CENTER IEC,Evaporative Cooler Total Stage Effectiveness [] !TimeStep
648,1,EAST DATA CENTER IEC,Evaporative Cooler Operating Mode Status [] !TimeStep
649,1,WEST DATA CENTER DEC,Evaporative Cooler Stage Effectiveness [] !TimeStep
650,1,EAST DATA CENTER DEC,Evaporative Cooler Stage Effectiveness [] !TimeStep
662,1,WEST DATA CENTER IEC,Evaporative Cooler Electric Power [W] !TimeStep
663,1,WEST DATA CENTER IEC,Evaporative Cooler Water Volume [m3] !TimeStep
726,1,EAST DATA CENTER IEC,Evaporative Cooler Electric Power [W] !TimeStep
727,1,EAST DATA CENTER IEC,Evaporative Cooler Water Volume [m3] !TimeStep
730,1,WEST DATA CENTER DEC,Evaporative Cooler Electric Power [W] !TimeStep
731,1,WEST DATA CENTER DEC,Evaporative Cooler Water Volume [m3] !TimeStep
734,1,EAST DATA CENTER DEC,Evaporative Cooler Electric Power [W] !TimeStep
735,1,EAST DATA CENTER DEC,Evaporative Cooler Water Volume [m3] !TimeStep
737,1,WEST DX COOLING COIL,Cooling Coil Total Cooling Rate [W] !TimeStep
739,1,WEST DX COOLING COIL,Cooling Coil Sensible Cooling Rate [W] !TimeStep
741,1,EAST DX COOLING COIL,Cooling Coil Total Cooling Rate [W] !TimeStep
743,1,EAST DX COOLING COIL,Cooling Coil Sensible Cooling Rate [W] !TimeStep
766,1,CHILLER,Chiller Evaporator Cooling Rate [W] !Hourly
788,1,CHILLER,Chiller Evaporator Inlet Temperature [C] !Hourly
789,1,CHILLER,Chiller Evaporator Outlet Temperature [C] !Hourly
790,1,CHILLER,Chiller Condenser Heat Transfer Rate [W] !Hourly
802,1,CHILLER,Chiller Condenser Inlet Temperature [C] !Hourly
803,1,CHILLER,Chiller Condenser Outlet Temperature [C] !Hourly
892,1,WEST ZONE INLET NODE,System Node Temperature [C] !TimeStep
893,1,WEST ZONE INLET NODE,System Node Mass Flow Rate [kg/s] !TimeStep
894,1,WEST OUTSIDE AIR INLET NODE,System Node Temperature [C] !TimeStep
895,1,WEST OUTSIDE AIR INLET NODE,System Node Mass Flow Rate [kg/s] !TimeStep
896,1,WEST IEC SECONDARY AIR INLET NODE,System Node Temperature [C] !TimeStep
897,1,WEST IEC SECONDARY AIR INLET NODE,System Node Mass Flow Rate [kg/s] !TimeStep
898,1,WEST ZONE DEC OUTLET NODE,System Node Temperature [C] !TimeStep
899,1,WEST ZONE DEC OUTLET NODE,System Node Setpoint Temperature [C] !TimeStep
900,1,WEST ZONE IEC OUTLET NODE,System Node Temperature [C] !TimeStep
901,1,WEST ZONE IEC OUTLET NODE,System Node Setpoint Temperature [C] !TimeStep
902,1,WEST ZONE CCOIL AIR OUTLET NODE,System Node Temperature [C] !TimeStep
903,1,WEST ZONE CCOIL AIR OUTLET NODE,System Node Setpoint Temperature [C] !TimeStep
904,1,WEST AIR LOOP OUTLET NODE,System Node Temperature [C] !TimeStep
905,1,WEST AIR LOOP OUTLET NODE,System Node Setpoint Temperature [C] !TimeStep
906,1,EAST ZONE INLET NODE,System Node Temperature [C] !TimeStep
907,1,EAST ZONE INLET NODE,System Node Mass Flow Rate [kg/s] !TimeStep
908,1,EAST OUTSIDE AIR INLET NODE,System Node Temperature [C] !TimeStep
909,1,EAST OUTSIDE AIR INLET NODE,System Node Mass Flow Rate [kg/s] !TimeStep
910,1,EAST IEC SECONDARY AIR INLET NODE,System Node Temperature [C] !TimeStep
911,1,EAST IEC SECONDARY AIR INLET NODE,System Node Mass Flow Rate [kg/s] !TimeStep
912,1,EAST ZONE DEC OUTLET NODE,System Node Temperature [C] !TimeStep
913,1,EAST ZONE DEC OUTLET NODE,System Node Setpoint Temperature [C] !TimeStep
914,1,EAST ZONE IEC OUTLET NODE,System Node Temperature [C] !TimeStep
915,1,EAST ZONE IEC OUTLET NODE,System Node Setpoint Temperature [C] !TimeStep
916,1,EAST ZONE CCOIL AIR OUTLET NODE,System Node Temperature [C] !TimeStep
917,1,EAST ZONE CCOIL AIR OUTLET NODE,System Node Setpoint Temperature [C] !TimeStep
918,1,EAST AIR LOOP OUTLET NODE,System Node Temperature [C] !TimeStep
919,1,EAST AIR LOOP OUTLET NODE,System Node Setpoint Temperature [C] !TimeStep
920,1,WEST ZONE RETURN AIR NODE,System Node Temperature [C] !TimeStep
921,1,WEST ZONE RETURN AIR NODE,System Node Mass Flow Rate [kg/s] !TimeStep
922,1,WEST ZONE MIXED AIR NODE,System Node Temperature [C] !TimeStep
923,1,WEST ZONE MIXED AIR NODE,System Node Mass Flow Rate [kg/s] !TimeStep
924,1,WEST ZONE SUPPLY FAN OUTLET NODE,System Node Temperature [C] !TimeStep
925,1,EAST ZONE SUPPLY FAN OUTLET NODE,System Node Temperature [C] !TimeStep
926,1,WEST IEC SECONDARY AIR OUTLET NODE,System Node Temperature [C] !TimeStep
927,1,WEST IEC SECONDARY AIR OUTLET NODE,System Node Mass Flow Rate [kg/s] !TimeStep
End of Data Dictionary
1,WHOLEYEARDAY,  37.62,-122.40,  -8.00,   2.00
2,1, 1, 1, 0, 1, 0.00,15.00,Tuesday
6,6.825
239,1.0300298866314462
312,18.686878220709528
313,39.49552720187205
349,19.97262094543254
350,38.23108504621108
599,0.0
600,0.0
603,0.0
604,0.0
645,0.13231157233536043
647,0.14771576015381217
649,0.09333333333333333
650,0.41999999999999995
662,15.074208079206756
663,0.0
726,43.75386265000144
727,0.0
730,4.0
731,0.0015350108388794469
734,8.373809131903287
735,0.005122888221499364
737,0.0
739,0.0
741,0.0
743,0.0
892,11.766990067898324
893,4.445071580861282
894,6.825
895,2.841177673124187
896,6.825
897,0.6695947450099872
898,10.784971463846779
899,11.2985654
900,10.03914101468943
901,11.2985654
902,10.03914101468943
903,11.2985654
904,10.03914101468943
905,11.2985654
906,14.618364254762837
907,5.435677680650143
908,6.825
909,1.6455392555038316
910,6.825
911,1.1010280485338036
912,14.8272574567968
913,21.562215466666666
914,13.696480339595235
915,21.562215466666666
916,13.696480339595235
917,21.562215466666666
918,13.696480339595235
919,21.562215466666666
920,19.119564349266228
921,4.445071580861282
922,11.107071581594287
923,4.445071580861282
924,11.422373412854104
925,16.38369274824802
926,8.376820983798476
927,0.6695947450099872
646,0.3333333333333333
648,0.26666666666666669
2,1, 1, 1, 0, 1,15.00,30.00,Tuesday
6,6.95
239,1.0895623283657932
312,17.487857584394904
313,46.020111379763097
349,18.33091014214701
350,47.09319228704908
599,0.0
600,0.0
603,0.0
604,0.0
645,0.19310217442965814
647,0.18978862362257183
649,0.3500000000000004
650,0.3500000000000004
662,23.835457263652868
663,0.0
726,61.73405303712611
727,0.0
730,8.571428571428584
731,0.003097499024957916
734,8.571428571428584
735,0.004738825062900854
737,0.0
739,0.0
741,0.0
743,0.0
892,12.980043397769674
893,4.000935048940556
894,6.950000000000009
895,1.3099870113005712
896,6.950000000000009
897,0.8872146363230622
898,13.051982279914763
899,16.42653435714288
900,11.739914329095149
901,16.42653435714288
902,11.739914329095149
903,16.42653435714288
904,11.739914329095149
905,16.42653435714288
906,13.63637830908913
907,5.187687367131063
908,6.950000000000009
909,1.5151931545954212
910,6.950000000000009
911,1.4722476946175316
912,13.42469073073092
913,21.571035785714324
914,12.116300830276519
915,21.571035785714324
916,12.116300830276519
917,21.571035785714324
918,12.116300830276519
919,21.571035785714324
920,17.57941865100799
921,4.000935048940556
922,14.018305328119253
923,4.000935048940556
924,14.368980872298126
925,14.779745350949668
926,8.85641149572056
927,0.8872146363230622
646,0.35714285714285767
648,0.35714285714285767
2,1, 1, 1, 0, 1,30.00,45.00,Tuesday
6,7.075
239,1.1416614214722443
312,20.134493997589048
313,40.65628914910563
349,17.42814602054007
350,51.73221323645855
599,0.0
600,0.0
603,0.0
604,0.0
645,0.1802609007979973
647,0.1324839881291118
649,0.175
650,0.4083333333333333
662,40.09997377914613
663,0.0
726,44.50955841119563
727,0.0
730,4.732606556553407
731,0.002011886586435431
734,6.307777398243398
735,0.002104884751899792
737,0.0
739,0.0
741,0.0
743,0.0
892,12.998869439006202
893,4.223633361881987
894,7.075000000000002
895,2.1816545075433959
896,7.075000000000002
897,1.0311567906873616
898,12.560215588227454
899,16.370072083333335
900,11.245816880857682
901,16.370072083333335
902,11.245816880857682
903,16.370072083333335
904,11.245816880857682
905,16.370072083333335
906,13.766308506083537
907,5.544229344986232
908,7.075000000000002
909,1.430447600777218
910,7.075000000000002
911,0.9404772815160892
912,14.341994939666531
913,20.433675833333333
914,13.398525572015086
915,20.433675833333333
916,13.398525572015086
917,20.433675833333333
918,13.398525572015086
919,20.433675833333333
920,20.05426099034823
921,4.223633361881987
922,13.173951820034457
923,4.223633361881987
924,13.493683184051985
925,15.1793958183987
926,9.09607857884673
927,1.0311567906873616
646,0.41666666666666665
648,0.25
2,1, 1, 1, 0, 1,45.00,60.00,Tuesday
6,7.2
239,1.0736716866119123
312,17.426691770834716
313,50.83331800131353
349,21.68004175606512
350,40.99237890220288
599,0.0
600,0.0
603,7.985074718068563
604,7.985074718069545
645,0.2047763285063838
647,0.1200983306221383
649,0.3499999999999993
650,0.4999999999999991
662,21.505035618546594
663,0.0
726,18.840475086299344
727,0.0
730,10.714285714285694
731,0.002796266320133948
734,4.285714285714278
735,0.003279922607127894
737,0.0
739,0.0
741,0.0
743,0.0
892,12.552828218861578
893,4.236274930553673
894,7.199999999999987
895,1.9227851566500392
896,7.199999999999987
897,0.8853027890774317
898,12.404269844281322
899,18.730375428571393
900,11.052767509023699
901,18.730375428571393
902,11.052767509023699
903,18.730375428571393
904,11.052767509023699
905,18.730375428571393
906,17.050220786764787
907,4.955550224273903
908,7.199999999999987
909,0.9000237700958003
910,7.199999999999987
911,0.7758397362236105
912,17.585514862483213
913,24.801209285714238
914,16.638757878574876
915,24.801209285714238
916,16.638757878574876
917,24.801209285714238
918,16.637122156887857
919,24.801209285714238
920,17.696611404813909
921,4.236274930553673
922,13.618571660461447
923,4.236274930553673
924,13.929327623036193
925,18.433895385014354
926,9.039318454362363
927,0.8853027890774317
646,0.3571428571428565
648,0.2857142857142852
2,1, 1, 1, 0, 1, 0.00,60.00,Tuesday
133,11198.794187827505
134,7481.4159381506015
135,1868.02101259781
136,13936.849545599995
137,10219.334400000002
138,1868.02101259781
139,20548.231138575917
173,2.7379363345610416
174,13.526464547419869
175,5.162598165859673
176,0.5732660158116512
177,21.960845996227407
178,0.06264628447897494
179,1.0
180,0.0
181,0.0
182,0.0
183,0.0
184,0.0
185,1.0
186,0.0
187,0.0
188,0.0
189,0.0
190,0.0
191,-19.42673398418835
192,11198.794187827505
193,7481.4159381506015
194,1868.02101259781
195,13936.849545599995
196,10219.334400000002
197,1868.02101259781
198,20548.231138575917
199,11822.952827374282
200,7676.30450814888
201,1949.9257335523157
202,15546.354479999996
203,11399.520000000002
204,1949.9257335523157
205,21449.18306907548
209,2.8159667309633757
210,13.20363618773587
211,6.409396119372646
212,0.6421135388131116
213,21.623334782019098
214,0.061142224927710358
215,1.0
216,0.0
217,0.0
218,0.0
219,0.0
220,0.0
221,1.0
222,0.0
223,0.0
224,0.0
225,0.0
226,0.0
227,-19.357886461186888
228,11822.952827374282
229,7676.30450814888
230,1949.9257335523157
231,15546.354479999996
232,11399.520000000002
233,1949.9257335523157
234,21449.18306907548
315,20.0
316,23.0
352,20.0
353,23.0
387,0.0
388,0.0
422,0.0
423,0.0
525,0.75
526,0.0
527,0.0
528,0.0
529,0.5
530,0.0
531,0.0
532,0.0
533,0.0
534,0.0
535,0.0
536,0.0
537,0.0
538,0.0
539,0.0
540,0.0
314,4.0
351,4.0
386,0.0
421,0.0
517,42025.814207651376
518,3444.947591569338
519,45470.76179922071
520,0.0
521,0.03869047619047619
522,0.07142857142857143
523,0.055357142857142858
524,0.16547619047619048
541,0.6775264617308621
542,0.39999999999999999
543,1.714170544655868
544,0.755583582875519
545,0.39999999999999999
546,1.1401781600181827
605,1469.2803956245118
606,0.3241161755077402
607,1322.3523560620604
608,5289409.424248242
639,4.226478730559375
640,1800.9752142615762
641,0.31031151433762696
642,1620.8776928354189
643,6483510.771341674
644,5.280786154260335
766,1.2036246977036718
788,10.204378317874689
789,10.147155295990825
790,1.3779339236502358
802,9.929798119967203
803,9.929810674781738
2,1, 1, 1, 0, 2, 0.00,15.00,Tuesday
6,7.2
239,1.0815215838302908
312,15.647193778369694
313,54.746074476275399
349,19.607660015063034
350,50.28729082019355
599,0.0
600,0.0
603,0.0
604,0.0
645,0.11913310992536881
647,0.12521490786351659
649,0.06363636363636362
650,0.5727272727272725
662,19.41512733788707
663,0.0
726,56.45847760791178
727,0.0
730,0.0
731,0.0
734,8.814507278718745
735,0.004166046434571553
737,0.0
739,0.0
741,0.0
743,0.0
892,12.263507605190516
893,4.9587927609395809
894,7.199999999999998
895,2.5143515760518189
896,7.199999999999998
897,0.6055850563204492
898,11.716754904282512
899,14.353743999999998
900,10.754431519979216
901,14.353743999999998
902,10.754431519979216
903,14.353743999999998
904,10.754431519979216
905,14.353743999999998
906,15.259528568857276
907,5.214871188174308
908,7.199999999999998
909,1.2499258740798998
910,7.199999999999998
911,0.9454021621988795
912,15.851958438217498
913,25.06585236363636
914,14.73386139206422
915,25.06585236363636
916,14.73386139206422
917,25.06585236363636
918,14.73386139206422
919,25.06585236363636
920,15.84892169445519
921,4.9587927609395809
922,11.421121291267605
923,4.9587927609395809
924,11.716754904282512
925,17.326439534606423
926,8.267945335098286
927,0.6055850563204492
646,0.18181818181818178
648,0.18181818181818189
2,1, 1, 1, 0, 2,15.00,30.00,Tuesday
6,7.2
239,1.0579036950643473
312,16.73744819526875
313,52.20189595931196
349,24.16178321328774
350,40.50871166557775
599,0.0
600,0.0
603,0.0
604,0.0
645,0.16236611052472936
647,0.13408773839861408
649,0.32666666666666668
650,0.5599999999999998
662,74.94592086974024
663,0.0
726,15.51593581097611
727,0.0
730,4.294994515298119
731,0.001586923760805152
734,7.01289028565105
735,0.0029689273146723596
737,0.0
739,0.0
741,0.0
743,0.0
892,13.267321286303306
893,5.007957870366872
894,7.200000000000003
895,1.515643546202357
896,7.200000000000003
897,1.2264764752401674
898,13.382831192787967
899,16.360486866666667
900,12.170682597822689
901,16.360486866666667
902,12.170682597822689
903,16.360486866666667
904,12.170682597822689
905,16.360486866666667
906,19.236055108307189
907,4.819230440325072
908,7.200000000000003
909,0.6974233524754439
910,7.200000000000003
911,0.7111881525822199
912,19.86807918620805
913,24.846899000000009
914,18.623215766457379
915,24.846899000000009
916,18.623215766457379
917,24.846899000000009