Program Version,EnergyPlus, Version 8.8.0-Unknown, YMD=2019.07.16 14:25
1,5,Environment Title[],Latitude[deg],Longitude[deg],Time Zone[],Elevation[m]
2,6,Day of Simulation[],Month[],Day of Month[],DST Indicator[1=yes 0=no],Hour[],StartMinute[],EndMinute[],DayType
3,3,Cumulative Day of Simulation[],Month[],Day of Month[],DST Indicator[1=yes 0=no],DayType  ! When Daily Report Variables Requested
4,2,Cumulative Days of Simulation[],Month[]  ! When Monthly Report Variables Requested
5,1,Cumulative Days of Simulation[] ! When Run Period Report Variables Requested
6,1,Environment,Site Outdoor Air Drybulb Temperature [C] !TimeStep
133,1,WESTDATACENTER_EQUIP,ITE CPU Electric Power [W] !Hourly
134,1,WESTDATACENTER_EQUIP,ITE Fan Electric Power [W] !Hourly
135,1,WESTDATACENTER_EQUIP,ITE UPS Electric Power [W] !Hourly
136,1,WESTDATACENTER_EQUIP,ITE CPU Electric Power at Design Inlet Conditions [W] !Hourly
137,1,WESTDATACENTER_EQUIP,ITE Fan Electric Power at Design Inlet Conditions [W] !Hourly
138,1,WESTDATACENTER_EQUIP,ITE UPS Heat Gain to Zone Rate [W] !Hourly
139,1,WESTDATACENTER_EQUIP,ITE Total Heat Gain to Zone Rate [W] !Hourly
173,1,WESTDATACENTER_EQUIP,ITE Standard Density Air Volume Flow Rate [m3/s] !Hourly
174,1,WESTDATACENTER_EQUIP,ITE Air Inlet Dry-Bulb Temperature [C] !Hourly
175,1,WESTDATACENTER_EQUIP,ITE Air Inlet Dewpoint Temperature [C] !Hourly
176,1,WESTDATACENTER_EQUIP,ITE Air Inlet Relative Humidity [%] !Hourly
177,1,WESTDATACENTER_EQUIP,ITE Air Outlet Dry-Bulb Temperature [C] !Hourly
178,1,WESTDATACENTER_EQUIP,ITE Supply Heat Index [] !Hourly
179,1,WESTDATACENTER_EQUIP,ITE Air Inlet Operating Range Exceeded Time [hr] !Hourly
180,1,WESTDATACENTER_EQUIP,ITE Air Inlet Dry-Bulb Temperature Above Operating Range Time [hr] !Hourly
181,1,WESTDATACENTER_EQUIP,ITE Air Inlet Dry-Bulb Temperature Below Operating Range Time [hr] !Hourly
182,1,WESTDATACENTER_EQUIP,ITE Air Inlet Dewpoint Temperature Above Operating Range Time [hr] !Hourly
183,1,WESTDATACENTER_EQUIP,ITE Air Inlet Dewpoint Temperature Below Operating Range Time [hr] !Hourly
184,1,WESTDATACENTER_EQUIP,ITE Air Inlet Relative Humidity Above Operating Range Time [hr] !Hourly
185,1,WESTDATACENTER_EQUIP,ITE Air Inlet Relative Humidity Below Operating Range Time [hr] !Hourly
186,1,WESTDATACENTER_EQUIP,ITE Air Inlet Dry-Bulb Temperature Difference Above Operating Range [deltaC] !Hourly
187,1,WESTDATACENTER_EQUIP,ITE Air Inlet Dry-Bulb Temperature Difference Below Operating Range [deltaC] !Hourly
188,1,WESTDATACENTER_EQUIP,ITE Air Inlet Dewpoint Temperature Difference Above Operating Range [deltaC] !Hourly
189,1,WESTDATACENTER_EQUIP,ITE Air Inlet Dewpoint Temperature Difference Below Operating Range [deltaC] !Hourly
190,1,WESTDATACENTER_EQUIP,ITE Air Inlet Relative Humidity Difference Above Operating Range [%] !Hourly
191,1,WESTDATACENTER_EQUIP,ITE Air Inlet Relative Humidity Difference Below Operating Range [%] !Hourly
192,1,WEST ZONE,Zone ITE CPU Electric Power [W] !Hourly
193,1,WEST ZONE,Zone ITE Fan Electric Power [W] !Hourly
194,1,WEST ZONE,Zone ITE UPS Electric Power [W] !Hourly
195,1,WEST ZONE,Zone ITE CPU Electric Power at Design Inlet Conditions [W] !Hourly
196,1,WEST ZONE,Zone ITE Fan Electric Power at Design Inlet Conditions [W] !Hourly
197,1,WEST ZONE,Zone ITE UPS Heat Gain to Zone Rate [W] !Hourly
198,1,WEST ZONE,Zone ITE Total Heat Gain to Zone Rate [W] !Hourly
199,1,EASTDATACENTER_EQUIP,ITE CPU Electric Power [W] !Hourly
200,1,EASTDATACENTER_EQUIP,ITE Fan Electric Power [W] !Hourly
201,1,EASTDATACENTER_EQUIP,ITE UPS Electric Power [W] !Hourly
202,1,EASTDATACENTER_EQUIP,ITE CPU Electric Power at Design Inlet Conditions [W] !Hourly
203,1,EASTDATACENTER_EQUIP,ITE Fan Electric Power at Design Inlet Conditions [W] !Hourly
204,1,EASTDATACENTER_EQUIP,ITE UPS Heat Gain to Zone Rate [W] !Hourly
205,1,EASTDATACENTER_EQUIP,ITE Total Heat Gain to Zone Rate [W] !Hourly
209,1,EASTDATACENTER_EQUIP,ITE Standard Density Air Volume Flow Rate [m3/s] !Hourly
210,1,EASTDATACENTER_EQUIP,ITE Air Inlet Dry-Bulb Temperature [C] !Hourly
211,1,EASTDATACENTER_EQUIP,ITE Air Inlet Dewpoint Temperature [C] !Hourly
212,1,EASTDATACENTER_EQUIP,ITE Air Inlet Relative Humidity [%] !Hourly
213,1,EASTDATACENTER_EQUIP,ITE Air Outlet Dry-Bulb Temperature [C] !Hourly
214,1,EASTDATACENTER_EQUIP,ITE Supply Heat Index [] !Hourly
215,1,EASTDATACENTER_EQUIP,ITE Air Inlet Operating Range Exceeded Time [hr] !Hourly
216,1,EASTDATACENTER_EQUIP,ITE Air Inlet Dry-Bulb Temperature Above Operating Range Time [hr] !Hourly
217,1,EASTDATACENTER_EQUIP,ITE Air Inlet Dry-Bulb Temperature Below Operating Range Time [hr] !Hourly
218,1,EASTDATACENTER_EQUIP,ITE Air Inlet Dewpoint Temperature Above Operating Range Time [hr] !Hourly
219,1,EASTDATACENTER_EQUIP,ITE Air Inlet Dewpoint Temperature Below Operating Range Time [hr] !Hourly
220,1,EASTDATACENTER_EQUIP,ITE Air Inlet Relative Humidity Above Operating Range Time [hr] !Hourly
221,1,EASTDATACENTER_EQUIP,ITE Air Inlet Relative Humidity Below Operating Range Time [hr] !Hourly
222,1,EASTDATACENTER_EQUIP,ITE Air Inlet Dry-Bulb Temperature Difference Above Operating Range [deltaC] !Hourly
223,1,EASTDATACENTER_EQUIP,ITE Air Inlet Dry-Bulb Temperature Difference Below Operating Range [deltaC] !Hourly
224,1,EASTDATACENTER_EQUIP,ITE Air Inlet Dewpoint Temperature Difference Above Operating Range [deltaC] !Hourly
225,1,EASTDATACENTER_EQUIP,ITE Air Inlet Dewpoint Temperature Difference Below Operating Range [deltaC] !Hourly
226,1,EASTDATACENTER_EQUIP,ITE Air Inlet Relative Humidity Difference Above Operating Range [%] !Hourly
227,1,EASTDATACENTER_EQUIP,ITE Air Inlet Relative Humidity Difference Below Operating Range [%] !Hourly
228,1,EAST ZONE,Zone ITE CPU Electric Power [W] !Hourly
229,1,EAST ZONE,Zone ITE Fan Electric Power [W] !Hourly
230,1,EAST ZONE,Zone ITE UPS Electric Power [W] !Hourly
231,1,EAST ZONE,Zone ITE CPU Electric Power at Design Inlet Conditions [W] !Hourly
232,1,EAST ZONE,Zone ITE Fan Electric Power at Design Inlet Conditions [W] !Hourly
233,1,EAST ZONE,Zone ITE UPS Heat Gain to Zone Rate [W] !Hourly
234,1,EAST ZONE,Zone ITE Total Heat Gain to Zone Rate [W] !Hourly
239,1,EMS,Power Utilization Effectiveness [] !TimeStep
312,1,WEST ZONE,Zone Air Temperature [C] !TimeStep
313,1,WEST ZONE,Zone Air Relative Humidity [%] !TimeStep
314,1,WEST ZONE,Zone Thermostat Control Type [] !Hourly
315,1,WEST ZONE,Zone Thermostat Heating Setpoint Temperature [C] !Hourly
316,1,WEST ZONE,Zone Thermostat Cooling Setpoint Temperature [C] !Hourly
349,1,EAST ZONE,Zone Air Temperature [C] !TimeStep
350,1,EAST ZONE,Zone Air Relative Humidity [%] !TimeStep
351,1,EAST ZONE,Zone Thermostat Control Type [] !Hourly
352,1,EAST ZONE,Zone Thermostat Heating Setpoint Temperature [C] !Hourly
353,1,EAST ZONE,Zone Thermostat Cooling Setpoint Temperature [C] !Hourly
386,1,WEST PLENUM,Zone Thermostat Control Type [] !Hourly
387,1,WEST PLENUM,Zone Thermostat Heating Setpoint Temperature [C] !Hourly
388,1,WEST PLENUM,Zone Thermostat Cooling Setpoint Temperature [C] !Hourly
421,1,EAST PLENUM,Zone Thermostat Control Type [] !Hourly
422,1,EAST PLENUM,Zone Thermostat Heating Setpoint Temperature [C] !Hourly
423,1,EAST PLENUM,Zone Thermostat Cooling Setpoint Temperature [C] !Hourly
517,1,Whole Building,Facility Total Building Electric Demand Power [W] !Hourly
518,1,Whole Building,Facility Total HVAC Electric Demand Power [W] !Hourly
519,1,Whole Building,Facility Total Electric Demand Power [W] !Hourly
520,1,WEST ZONE,Zone Oscillating Temperatures Time [hr] !Hourly
521,1,EAST ZONE,Zone Oscillating Temperatures Time [hr] !Hourly
522,1,WEST PLENUM,Zone Oscillating Temperatures Time [hr] !Hourly
523,1,EAST PLENUM,Zone Oscillating Temperatures Time [hr] !Hourly
524,1,Facility,Facility Any Zone Oscillating Temperatures Time [hr] !Hourly
525,1,WEST ZONE,Zone Heating Setpoint Not Met Time [hr] !Hourly
526,1,WEST ZONE,Zone Heating Setpoint Not Met While Occupied Time [hr] !Hourly
527,1,WEST ZONE,Zone Cooling Setpoint Not Met Time [hr] !Hourly
528,1,WEST ZONE,Zone Cooling Setpoint Not Met While Occupied Time [hr] !Hourly
529,1,EAST ZONE,Zone Heating Setpoint Not Met Time [hr] !Hourly
530,1,EAST ZONE,Zone Heating Setpoint Not Met While Occupied Time [hr] !Hourly
531,1,EAST ZONE,Zone Cooling Setpoint Not Met Time [hr] !Hourly
532,1,EAST ZONE,Zone Cooling Setpoint Not Met While Occupied Time [hr] !Hourly
533,1,WEST PLENUM,Zone Heating Setpoint Not Met Time [hr] !Hourly
534,1,WEST PLENUM,Zone Heating Setpoint Not Met While Occupied Time [hr] !Hourly
535,1,WEST PLENUM,Zone Cooling Setpoint Not Met Time [hr] !Hourly
536,1,WEST PLENUM,Zone Cooling Setpoint Not Met While Occupied Time [hr] !Hourly
537,1,EAST PLENUM,Zone Heating Setpoint Not Met Time [hr] !Hourly
538,1,EAST PLENUM,Zone Heating Setpoint Not Met While Occupied Time [hr] !Hourly
539,1,EAST PLENUM,Zone Cooling Setpoint Not Met Time [hr] !Hourly
540,1,EAST PLENUM,Zone Cooling Setpoint Not Met While Occupied Time [hr] !Hourly
541,1,WEST ZONE VAV SYSTEM,Zone Air Terminal VAV Damper Position [] !Hourly
542,1,WEST ZONE VAV SYSTEM,Zone Air Terminal Minimum Air Flow Fraction [] !Hourly
543,1,WEST ZONE VAV SYSTEM,Zone Air Terminal Outdoor Air Volume Flow Rate [m3/s] !Hourly
544,1,EAST ZONE VAV SYSTEM,Zone Air Terminal VAV Damper Position [] !Hourly
545,1,EAST ZONE VAV SYSTEM,Zone Air Terminal Minimum Air Flow Fraction [] !Hourly
546,1,EAST ZONE VAV SYSTEM,Zone Air Terminal Outdoor Air Volume Flow Rate [m3/s] !Hourly
599,1,WEST ZONE CW COOLING COIL,Cooling Coil Total Cooling Rate [W] !TimeStep
600,1,WEST ZONE CW COOLING COIL,Cooling Coil Sensible Cooling Rate [W] !TimeStep
603,1,EAST ZONE CW COOLING COIL,Cooling Coil Total Cooling Rate [W] !TimeStep
604,1,EAST ZONE CW COOLING COIL,Cooling Coil Sensible Cooling Rate [W] !TimeStep
605,1,WEST ZONE SUPPLY FAN,Fan Electric Power [W] !Hourly
606,1,WEST ZONE SUPPLY FAN,Fan Rise in Air Temperature [deltaC] !Hourly
607,1,WEST ZONE SUPPLY FAN,Fan Heat Gain to Air [W] !Hourly
608,1,WEST ZONE SUPPLY FAN,Fan Electric Energy [J] !Hourly
639,1,WEST ZONE SUPPLY FAN,Fan Air Mass Flow Rate [kg/s] !Hourly
640,1,EAST ZONE SUPPLY FAN,Fan Electric Power [W] !Hourly
641,1,EAST ZONE SUPPLY FAN,Fan Rise in Air Temperature [deltaC] !Hourly
642,1,EAST ZONE SUPPLY FAN,Fan Heat Gain to Air [W] !Hourly
643,1,EAST ZONE SUPPLY FAN,Fan Electric Energy [J] !Hourly
644,1,EAST ZONE SUPPLY FAN,Fan Air Mass Flow Rate [kg/s] !Hourly
645,1,WEST DATA CENTER IEC,Evaporative Cooler Total Stage Effectiveness [] !TimeStep
646,1,WEST DATA CENTER IEC,Evaporative Cooler Operating Mode Status [] !TimeStep
647,1,EAST DATA CENTER IEC,Evaporative Cooler Total Stage Effectiveness [] !TimeStep
648,1,EAST DATA CENTER IEC,Evaporative Cooler Operating Mode Status [] !TimeStep
649,1,WEST DATA CENTER DEC,Evaporative Cooler Stage Effectiveness [] !TimeStep
650,1,EAST DATA CENTER DEC,Evaporative Cooler Stage Effectiveness [] !TimeStep
662,1,WEST DATA CENTER IEC,Evaporative Cooler Electric Power [W] !TimeStep
663,1,WEST DATA CENTER IEC,Evaporative Cooler Water Volume [m3] !TimeStep
726,1,EAST DATA CENTER IEC,Evaporative Cooler Electric Power [W] !TimeStep
727,1,EAST DATA CENTER IEC,Evaporative Cooler Water Volume [m3] !TimeStep
730,1,WEST DATA CENTER DEC,Evaporative Cooler Electric Power [W] !TimeStep
731,1,WEST DATA CENTER DEC,Evaporative Cooler Water Volume [m3] !TimeStep
734,1,EAST DATA CENTER DEC,Evaporative Cooler Electric Power [W] !TimeStep
735,1,EAST DATA CENTER DEC,Evaporative Cooler Water Volume [m3] !TimeStep
737,1,WEST DX COOLING COIL,Cooling Coil Total Cooling Rate [W] !TimeStep
739,1,WEST DX COOLING COIL,Cooling Coil Sensible Cooling Rate [W] !TimeStep
741,1,EAST DX COOLING COIL,Cooling Coil Total Cooling Rate [W] !TimeStep
743,1,EAST DX COOLING COIL,Cooling Coil Sensible Cooling Rate [W] !TimeStep
766,1,CHILLER,Chiller Evaporator Cooling Rate [W] !Hourly
788,1,CHILLER,Chiller Evaporator Inlet Temperature [C] !Hourly
789,1,CHILLER,Chiller Evaporator Outlet Temperature [C] !Hourly
790,1,CHILLER,Chiller Condenser Heat Transfer Rate [W] !Hourly
802,1,CHILLER,Chiller Condenser Inlet Temperature [C] !Hourly
803,1,CHILLER,Chiller Condenser Outlet Temperature [C] !Hourly
892,1,WEST ZONE INLET NODE,System Node Temperature [C] !TimeStep
893,1,WEST ZONE INLET NODE,System Node Mass Flow Rate [kg/s] !TimeStep
894,1,WEST OUTSIDE AIR INLET NODE,System Node Temperature [C] !TimeStep
895,1,WEST OUTSIDE AIR INLET NODE,System Node Mass Flow Rate [kg/s] !TimeStep
896,1,WEST IEC SECONDARY AIR INLET NODE,System Node Temperature [C] !TimeStep
897,1,WEST IEC SECONDARY AIR INLET NODE,System Node Mass Flow Rate [kg/s] !TimeStep
898,1,WEST ZONE DEC OUTLET NODE,System Node Temperature [C] !TimeStep
899,1,WEST ZONE DEC OUTLET NODE,System Node Setpoint Temperature [C] !TimeStep
900,1,WEST ZONE IEC OUTLET NODE,System Node Temperature [C] !TimeStep
901,1,WEST ZONE IEC OUTLET NODE,System Node Setpoint Temperature [C] !TimeStep
902,1,WEST ZONE CCOIL AIR OUTLET NODE,System Node Temperature [C] !TimeStep
903,1,WEST ZONE CCOIL AIR OUTLET NODE,System Node Setpoint Temperature [C] !TimeStep
904,1,WEST AIR LOOP OUTLET NODE,System Node Temperature [C] !TimeStep
905,1,WEST AIR LOOP OUTLET NODE,System Node Setpoint Temperature [C] !TimeStep
906,1,EAST ZONE INLET NODE,System Node Temperature [C] !TimeStep
907,1,EAST ZONE INLET NODE,System Node Mass Flow Rate [kg/s] !TimeStep
908,1,EAST OUTSIDE AIR INLET NODE,System Node Temperature [C] !TimeStep
909,1,EAST OUTSIDE AIR INLET NODE,System Node Mass Flow Rate [kg/s] !TimeStep
910,1,EAST IEC SECONDARY AIR INLET NODE,System Node Temperature [C] !TimeStep
911,1,EAST IEC SECONDARY AIR INLET NODE,System Node Mass Flow Rate [kg/s] !TimeStep
912,1,EAST ZONE DEC OUTLET NODE,System Node Temperature [C] !TimeStep
913,1,EAST ZONE DEC OUTLET NODE,System Node Setpoint Temperature [C] !TimeStep
914,1,EAST ZONE IEC OUTLET NODE,System Node Temperature [C] !TimeStep
915,1,EAST ZONE IEC OUTLET NODE,System Node Setpoint Temperature [C] !TimeStep
916,1,EAST ZONE CCOIL AIR OUTLET NODE,System Node Temperature [C] !TimeStep
917,1,EAST ZONE CCOIL AIR OUTLET NODE,System Node Setpoint Temperature [C] !TimeStep
918,1,EAST AIR LOOP OUTLET NODE,System Node Temperature [C] !TimeStep
919,1,EAST AIR LOOP OUTLET NODE,System Node Setpoint Temperature [C] !TimeStep
920,1,WEST ZONE RETURN AIR NODE,System Node Temperature [C] !TimeStep
921,1,WEST ZONE RETURN AIR NODE,System Node Mass Flow Rate [kg/s] !TimeStep
922,1,WEST ZONE MIXED AIR NODE,System Node Temperature [C] !TimeStep
923,1,WEST ZONE MIXED AIR NODE,System Node Mass Flow Rate [kg/s] !TimeStep
924,1,WEST ZONE SUPPLY FAN OUTLET NODE,System Node Temperature [C] !TimeStep
925,1,EAST ZONE SUPPLY FAN OUTLET NODE,System Node Temperature [C] !TimeStep
926,1,WEST IEC SECONDARY AIR OUTLET NODE,System Node Temperature [C] !TimeStep
927,1,WEST IEC SECONDARY AIR OUTLET NODE,System Node Mass Flow Rate [kg/s] !TimeStep
End of Data Dictionary
1,WHOLEYEARDAY,  37.62,-122.40,  -8.00,   2.00
2,1, 1, 1, 0, 1, 0.00,15.00,Tuesday
6,6.825
239,1.0300298866314462
312,23.31410995136187
313,29.957689136641088
349,21.587197084690098
350,34.18018329161894
599,0.0
600,0.0
603,0.0
604,0.0
645,0.10130863332476045
647,0.0
649,0.46666666666666659
650,0.6533333333333331
662,2.480354277503799
663,0.0
726,0.0
727,0.0
730,7.135090024637853
731,0.002063370851585751
734,3.5089358954720599
735,0.00281676735630517
737,0.0
739,0.0
741,0.0
743,0.0
892,16.22926291773496
893,2.464935733333333
894,6.825
895,0.7798579541813436
896,6.825
897,0.27896565557179306
898,17.88623665926614
899,22.853920066666669
900,17.07230674225194
901,22.853920066666669
902,17.07230674225194
903,22.853920066666669
904,17.07230674225194
905,22.853920066666669
906,18.78028623588633
907,6.826950427966954
908,6.825
909,0.5628645253080034
910,6.825
911,0.0
912,19.869723946473653
913,30.135941533333335
914,19.869723946473653
915,30.135941533333335
916,19.869723946473653
917,30.135941533333335
918,19.869723946473653
919,30.135941533333335
920,23.376240814581224
921,2.464935733333333
922,19.193503744399135
923,2.464935733333333
924,19.57827216837095
925,20.63343437653983
926,8.778556967135759
927,0.27896565557179306
646,0.26666666666666669
648,0.0
2,1, 1, 1, 0, 1,15.00,30.00,Tuesday
6,6.95
239,1.0674491245337428
312,25.4827062662511
313,30.521111644944303
349,29.69221921291431
350,23.974573474242399
599,0.0
600,0.0
603,0.0
604,0.0
645,0.06114248269838607
647,0.023496252426846478
649,0.6066666666666665
650,0.6533333333333331
662,0.8323735961565582
663,0.0
726,3.9180289548087829
727,0.0
730,8.323216695011617
731,0.002026869717978461
734,2.924648108026047
735,0.003541306002530607
737,0.0
739,0.0
741,0.0
743,0.0
892,18.60973807047882
893,2.3195289333333335
894,6.9499999999999979
895,0.5756623892786765
896,6.9499999999999979
897,0.13523706899327679
898,19.883999584918695
899,25.181958533333338
900,19.33587791831215
901,25.181958533333338
902,19.33587791831215
903,25.181958533333338
904,19.33587791831215
905,25.181958533333338
906,24.337220854749789
907,6.579632423305796
908,6.9499999999999979
909,0.5151945035077301
910,6.9499999999999979
911,0.1904487725240206
912,26.428366086646397
913,34.14693246666667
914,26.106735164863527
915,34.14693246666667
916,26.106735164863527
917,34.14693246666667
918,26.106735164863527
919,34.14693246666667
920,25.14787210592215
921,2.3195289333333335
922,21.36681941810611
923,2.3195289333333335
924,21.76979814573156
925,27.37178456545415
926,8.003950462796324
927,0.13523706899327679
646,0.13333333333333334
648,0.06666666666666667
2,1, 1, 1, 0, 1,30.00,45.00,Tuesday
6,7.075
239,1.0298231398439757
312,34.34219449609001
313,19.873914794061478
349,33.2111367274776
350,23.71925657178848
599,0.0
600,0.0
603,4861.357357148624
604,562.4607442275912
645,0.16171250199664259
647,0.06503793843256904
649,0.46666666666666659
650,0.6066666666666665
662,3.4974128165105076
663,0.0
726,110.03019038895346
727,0.0
730,4.572818622246733
731,0.0027399673457886629
734,7.606751914164146
735,0.009990415569076934
737,0.0
739,0.0
741,0.0
743,0.0
892,19.995720654279336
893,2.7709950000000007
894,7.075
895,1.0214404253656442
896,7.075
897,0.4388088865999047
898,23.415580117441207
899,25.67141726666667
900,20.16977114361326
901,25.67141726666667
902,20.16977114361326
903,25.67141726666667
904,20.16977114361326
905,25.67141726666667
906,24.434198674505507
907,6.646772525636376
908,7.075
909,0.9896532436955975
910,7.075
911,0.8195662747798578
912,26.3311270825655
913,31.446700066666666
914,25.31054605008636
915,31.446700066666666
916,25.31054605008636
917,31.446700066666666
918,25.23217122936972
919,31.446700066666666
920,33.78858695363997
921,2.7709950000000007
922,24.162194343255015
923,2.7709950000000007
924,24.54360257770209
925,28.925683132944937
926,12.624057835594972
927,0.4388088865999047
646,0.3333333333333333
648,0.13333333333333334
2,1, 1, 1, 0, 1,45.00,60.00,Tuesday
6,7.2
239,1.0245160231791919
312,31.11069415222895
313,24.548849332615889
349,37.89993301625929
350,19.98326348196201
599,0.0
600,0.0
603,0.016131908309824026
604,0.016131908308582727
645,0.1369951885136008
647,0.09273873002039078
649,0.3733333333333333
650,0.32666666666666668
662,107.59211342422563
663,0.0
726,40.97243825237168
727,0.0
730,4.600533272307167
731,0.00366553308472971
734,3.3051706736441019
735,0.0034187323812501916
737,1737.5070477677166
739,1136.1770801218154
741,0.0
743,0.0
892,17.554542313175653
893,2.7840001561722569
894,7.200000000000003
895,0.939851220515696
896,7.200000000000003
897,0.9878976032088189
898,21.33694877213874
899,23.2750854
900,18.275707996351973
901,23.2750854
902,18.01656339529813
903,23.2750854
904,18.01656339529813
905,23.2750854
906,27.552056666821167
907,6.98860349929478
908,7.200000000000003
909,1.3723117024738765
910,7.200000000000003
911,0.7911811226017065
912,31.06028581287441
913,32.92443166666667
914,28.696359140291525
915,32.92443166666667
916,28.696359140291525
917,32.92443166666667
918,28.696356876674128
919,32.92443166666667
920,31.363441435879169
921,2.7840001561722569
922,22.364322335736174
923,2.7840001561722569
924,22.75407514091513
925,31.941544972712614
926,10.4134472807584
927,0.9878976032088189
646,0.26666666666666669
648,0.26666666666666669
2,1, 1, 1, 0, 1, 0.00,60.00,Tuesday
133,20479.596734566396
134,16761.75446796301
135,3724.1351202529395
136,13936.849545599995
137,10219.334400000002
138,3724.1351202529395
139,40965.48632278234
173,6.003044557298278
174,18.521101176001886
175,6.293866935664269
176,0.4545899554823365
177,26.035200374037733
178,0.10671022991426421
179,1.0
180,0.0
181,0.0
182,0.0
183,0.0
184,0.0
185,1.0
186,0.0
187,0.0
188,0.0
189,0.0
190,0.0
191,-19.545410044517664
192,20479.596734566396
193,16761.75446796301
194,3724.1351202529395
195,13936.849545599995
196,10219.334400000002
197,3724.1351202529395
198,40965.48632278234
199,31184.30954642683
200,27036.693207766453
201,5822.100275419327
202,15546.354479999996
203,11399.520000000002
204,5822.100275419327
205,64043.10302961261
209,9.523017395414718
210,22.544567897833898
211,7.248895074922904
212,0.38276268562407669
213,29.953927331410165
214,0.07494865207248477
215,1.0
216,0.0
217,0.0
218,0.0
219,0.0
220,0.0
221,1.0
222,0.0
223,0.0
224,0.0
225,0.0
226,0.0
227,-19.617237314375925
228,31184.30954642683
229,27036.693207766453
230,5822.100275419327
231,15546.354479999996
232,11399.520000000002
233,5822.100275419327
234,64043.10302961261
315,20.0
316,23.0
352,20.0
353,23.0
387,0.0
388,0.0
422,0.0
423,0.0
525,0.0
526,0.0
527,0.75
528,0.0
529,0.0
530,0.0
531,0.75
532,0.0
533,0.0
534,0.0
535,0.0
536,0.0
537,0.0
538,0.0
539,0.0
540,0.0
314,4.0
351,4.0
386,0.0
421,0.0
517,105036.98935239496
518,3886.1347115866392
519,108923.1240639816
520,0.0
521,0.0
522,0.0
523,0.06666666666666667
524,0.06666666666666667
541,0.4143672591633577
542,0.4
543,0.6886935437067103
544,0.9673020066894049
545,0.4
546,0.7142769350152578
605,1046.911770149221
606,0.38972704780582248
607,942.2205931342985
608,3768882.372537195
639,2.584864955709731
640,2340.724897911688
641,0.3055126399225139
642,2106.6524081205193
643,8426609.632482073
644,6.760489719050976
766,1142.8392352609442
788,10.22268778175472
789,10.168879482124036
790,1309.493926628357
802,9.949377324298178
803,9.961308658005463
2,1, 1, 1, 0, 2, 0.00,15.00,Tuesday
6,7.2
239,1.0239372619897318
312,34.54845037526618
313,21.13362766602339
349,28.808788028503597
350,35.86946049686028
599,0.0
600,0.0
603,0.0
604,0.0
645,0.15594625473670788
647,0.0715147324117615
649,0.27999999999999999
650,0.6066666666666665
662,290.138660222114
663,0.0
726,49.60025501132314
727,0.0
730,4.731355431411318
731,0.001383795735859798
734,9.714607494644178
735,0.00886391081566235
737,3038.6085114144516
739,1967.4284353243447
741,0.0
743,0.0
892,19.638304796982508
893,2.3573525333333338
894,7.200000000000003
895,0.903921782430796
896,7.200000000000003
897,1.8423237456405426
898,22.65822680889405
899,25.884649666666669
900,19.34001375684121
901,25.884649666666669
902,18.703943333292757
903,25.884649666666669
904,18.703943333292757
905,25.884649666666669
906,22.432142774402558
907,6.899340027966954
908,7.200000000000003
909,1.6155529954830826
910,7.200000000000003
911,0.6132911296350627
912,22.73689640454235
913,29.323913466666668
914,22.079004272009006
915,29.323913466666668
916,22.079004272009006
917,29.323913466666668
918,22.079004272009006
919,29.323913466666668
920,34.23391150277891
921,2.3573525333333338
922,23.569286146438168
923,2.3573525333333338
924,23.9725598011574
925,25.015930505257655
926,9.894886142111878
927,1.8423237456405426
646,0.26666666666666669
648,0.2
2,1, 1, 1, 0, 2,15.00,30.00,Tuesday
6,7.2
239,1.0357341871184585
312,31.647829316116359
313,24.467770016218826
349,27.172489922784796
350,37.86080998935424
599,0.0
600,0.0
603,4784.094289759325
604,530.9364864058435
645,0.13285640615739054
647,0.10468099523534447
649,0.46666666666666659
650,0.5599999999999998
662,97.48951827053316
663,0.0
726,121.94814249473072
727,0.0
730,9.598928562348789
731,0.0031359642847147196
734,7.016138423550906
735,0.00590203370462954
737,779.1100201260205
739,29.741929420333137
741,0.0
743,0.0
892,17.609800185531694
893,2.4455107333333334
894,7.200000000000003
895,1.112024464347211
896,7.200000000000003
897,0.7957044680304786
898,18.48117129056115
899,21.623641
900,16.751703840062587
901,21.623641
902,16.740182580525233
903,21.623641
904,16.740182580525233
905,21.623641
906,20.634934998782556
907,6.615559125636375
908,7.200000000000003
909,1.5938763706099116
910,7.200000000000003
911,1.1500803889570717
912,20.903520946977847
913,25.2693722
914,19.55500833679815
915,25.2693722
916,19.55500833679815
917,25.2693722
918,19.48096803182514