Program Version,EnergyPlus, Version 8.8.0-Unknown, YMD=2019.07.16 14:29
1,5,Environment Title[],Latitude[deg],Longitude[deg],Time Zone[],Elevation[m]
2,6,Day of Simulation[],Month[],Day of Month[],DST Indicator[1=yes 0=no],Hour[],StartMinute[],EndMinute[],DayType
3,3,Cumulative Day of Simulation[],Month[],Day of Month[],DST Indicator[1=yes 0=no],DayType  ! When Daily Report Variables Requested
4,2,Cumulative Days of Simulation[],Month[]  ! When Monthly Report Variables Requested
5,1,Cumulative Days of Simulation[] ! When Run Period Report Variables Requested
6,1,Environment,Site Outdoor Air Drybulb Temperature [C] !TimeStep
133,1,WESTDATACENTER_EQUIP,ITE CPU Electric Power [W] !Hourly
134,1,WESTDATACENTER_EQUIP,ITE Fan Electric Power [W] !Hourly
135,1,WESTDATACENTER_EQUIP,ITE UPS Electric Power [W] !Hourly
136,1,WESTDATACENTER_EQUIP,ITE CPU Electric Power at Design Inlet Conditions [W] !Hourly
137,1,WESTDATACENTER_EQUIP,ITE Fan Electric Power at Design Inlet Conditions [W] !Hourly
138,1,WESTDATACENTER_EQUIP,ITE UPS Heat Gain to Zone Rate [W] !Hourly
139,1,WESTDATACENTER_EQUIP,ITE Total Heat Gain to Zone Rate [W] !Hourly
173,1,WESTDATACENTER_EQUIP,ITE Standard Density Air Volume Flow Rate [m3/s] !Hourly
174,1,WESTDATACENTER_EQUIP,ITE Air Inlet Dry-Bulb Temperature [C] !Hourly
175,1,WESTDATACENTER_EQUIP,ITE Air Inlet Dewpoint Temperature [C] !Hourly
176,1,WESTDATACENTER_EQUIP,ITE Air Inlet Relative Humidity [%] !Hourly
177,1,WESTDATACENTER_EQUIP,ITE Air Outlet Dry-Bulb Temperature [C] !Hourly
178,1,WESTDATACENTER_EQUIP,ITE Supply Heat Index [] !Hourly
179,1,WESTDATACENTER_EQUIP,ITE Air Inlet Operating Range Exceeded Time [hr] !Hourly
180,1,WESTDATACENTER_EQUIP,ITE Air Inlet Dry-Bulb Temperature Above Operating Range Time [hr] !Hourly
181,1,WESTDATACENTER_EQUIP,ITE Air Inlet Dry-Bulb Temperature Below Operating Range Time [hr] !Hourly
182,1,WESTDATACENTER_EQUIP,ITE Air Inlet Dewpoint Temperature Above Operating Range Time [hr] !Hourly
183,1,WESTDATACENTER_EQUIP,ITE Air Inlet Dewpoint Temperature Below Operating Range Time [hr] !Hourly
184,1,WESTDATACENTER_EQUIP,ITE Air Inlet Relative Humidity Above Operating Range Time [hr] !Hourly
185,1,WESTDATACENTER_EQUIP,ITE Air Inlet Relative Humidity Below Operating Range Time [hr] !Hourly
186,1,WESTDATACENTER_EQUIP,ITE Air Inlet Dry-Bulb Temperature Difference Above Operating Range [deltaC] !Hourly
187,1,WESTDATACENTER_EQUIP,ITE Air Inlet Dry-Bulb Temperature Difference Below Operating Range [deltaC] !Hourly
188,1,WESTDATACENTER_EQUIP,ITE Air Inlet Dewpoint Temperature Difference Above Operating Range [deltaC] !Hourly
189,1,WESTDATACENTER_EQUIP,ITE Air Inlet Dewpoint Temperature Difference Below Operating Range [deltaC] !Hourly
190,1,WESTDATACENTER_EQUIP,ITE Air Inlet Relative Humidity Difference Above Operating Range [%] !Hourly
191,1,WESTDATACENTER_EQUIP,ITE Air Inlet Relative Humidity Difference Below Operating Range [%] !Hourly
192,1,WEST ZONE,Zone ITE CPU Electric Power [W] !Hourly
193,1,WEST ZONE,Zone ITE Fan Electric Power [W] !Hourly
194,1,WEST ZONE,Zone ITE UPS Electric Power [W] !Hourly
195,1,WEST ZONE,Zone ITE CPU Electric Power at Design Inlet Conditions [W] !Hourly
196,1,WEST ZONE,Zone ITE Fan Electric Power at Design Inlet Conditions [W] !Hourly
197,1,WEST ZONE,Zone ITE UPS Heat Gain to Zone Rate [W] !Hourly
198,1,WEST ZONE,Zone ITE Total Heat Gain to Zone Rate [W] !Hourly
199,1,EASTDATACENTER_EQUIP,ITE CPU Electric Power [W] !Hourly
200,1,EASTDATACENTER_EQUIP,ITE Fan Electric Power [W] !Hourly
201,1,EASTDATACENTER_EQUIP,ITE UPS Electric Power [W] !Hourly
202,1,EASTDATACENTER_EQUIP,ITE CPU Electric Power at Design Inlet Conditions [W] !Hourly
203,1,EASTDATACENTER_EQUIP,ITE Fan Electric Power at Design Inlet Conditions [W] !Hourly
204,1,EASTDATACENTER_EQUIP,ITE UPS Heat Gain to Zone Rate [W] !Hourly
205,1,EASTDATACENTER_EQUIP,ITE Total Heat Gain to Zone Rate [W] !Hourly
209,1,EASTDATACENTER_EQUIP,ITE Standard Density Air Volume Flow Rate [m3/s] !Hourly
210,1,EASTDATACENTER_EQUIP,ITE Air Inlet Dry-Bulb Temperature [C] !Hourly
211,1,EASTDATACENTER_EQUIP,ITE Air Inlet Dewpoint Temperature [C] !Hourly
212,1,EASTDATACENTER_EQUIP,ITE Air Inlet Relative Humidity [%] !Hourly
213,1,EASTDATACENTER_EQUIP,ITE Air Outlet Dry-Bulb Temperature [C] !Hourly
214,1,EASTDATACENTER_EQUIP,ITE Supply Heat Index [] !Hourly
215,1,EASTDATACENTER_EQUIP,ITE Air Inlet Operating Range Exceeded Time [hr] !Hourly
216,1,EASTDATACENTER_EQUIP,ITE Air Inlet Dry-Bulb Temperature Above Operating Range Time [hr] !Hourly
217,1,EASTDATACENTER_EQUIP,ITE Air Inlet Dry-Bulb Temperature Below Operating Range Time [hr] !Hourly
218,1,EASTDATACENTER_EQUIP,ITE Air Inlet Dewpoint Temperature Above Operating Range Time [hr] !Hourly
219,1,EASTDATACENTER_EQUIP,ITE Air Inlet Dewpoint Temperature Below Operating Range Time [hr] !Hourly
220,1,EASTDATACENTER_EQUIP,ITE Air Inlet Relative Humidity Above Operating Range Time [hr] !Hourly
221,1,EASTDATACENTER_EQUIP,ITE Air Inlet Relative Humidity Below Operating Range Time [hr] !Hourly
222,1,EASTDATACENTER_EQUIP,ITE Air Inlet Dry-Bulb Temperature Difference Above Operating Range [deltaC] !Hourly
223,1,EASTDATACENTER_EQUIP,ITE Air Inlet Dry-Bulb Temperature Difference Below Operating Range [deltaC] !Hourly
224,1,EASTDATACENTER_EQUIP,ITE Air Inlet Dewpoint Temperature Difference Above Operating Range [deltaC] !Hourly
225,1,EASTDATACENTER_EQUIP,ITE Air Inlet Dewpoint Temperature Difference Below Operating Range [deltaC] !Hourly
226,1,EASTDATACENTER_EQUIP,ITE Air Inlet Relative Humidity Difference Above Operating Range [%] !Hourly
227,1,EASTDATACENTER_EQUIP,ITE Air Inlet Relative Humidity Difference Below Operating Range [%] !Hourly
228,1,EAST ZONE,Zone ITE CPU Electric Power [W] !Hourly
229,1,EAST ZONE,Zone ITE Fan Electric Power [W] !Hourly
230,1,EAST ZONE,Zone ITE UPS Electric Power [W] !Hourly
231,1,EAST ZONE,Zone ITE CPU Electric Power at Design Inlet Conditions [W] !Hourly
232,1,EAST ZONE,Zone ITE Fan Electric Power at Design Inlet Conditions [W] !Hourly
233,1,EAST ZONE,Zone ITE UPS Heat Gain to Zone Rate [W] !Hourly
234,1,EAST ZONE,Zone ITE Total Heat Gain to Zone Rate [W] !Hourly
239,1,EMS,Power Utilization Effectiveness [] !TimeStep
312,1,WEST ZONE,Zone Air Temperature [C] !TimeStep
313,1,WEST ZONE,Zone Air Relative Humidity [%] !TimeStep
314,1,WEST ZONE,Zone Thermostat Control Type [] !Hourly
315,1,WEST ZONE,Zone Thermostat Heating Setpoint Temperature [C] !Hourly
316,1,WEST ZONE,Zone Thermostat Cooling Setpoint Temperature [C] !Hourly
349,1,EAST ZONE,Zone Air Temperature [C] !TimeStep
350,1,EAST ZONE,Zone Air Relative Humidity [%] !TimeStep
351,1,EAST ZONE,Zone Thermostat Control Type [] !Hourly
352,1,EAST ZONE,Zone Thermostat Heating Setpoint Temperature [C] !Hourly
353,1,EAST ZONE,Zone Thermostat Cooling Setpoint Temperature [C] !Hourly
386,1,WEST PLENUM,Zone Thermostat Control Type [] !Hourly
387,1,WEST PLENUM,Zone Thermostat Heating Setpoint Temperature [C] !Hourly
388,1,WEST PLENUM,Zone Thermostat Cooling Setpoint Temperature [C] !Hourly
421,1,EAST PLENUM,Zone Thermostat Control Type [] !Hourly
422,1,EAST PLENUM,Zone Thermostat Heating Setpoint Temperature [C] !Hourly
423,1,EAST PLENUM,Zone Thermostat Cooling Setpoint Temperature [C] !Hourly
517,1,Whole Building,Facility Total Building Electric Demand Power [W] !Hourly
518,1,Whole Building,Facility Total HVAC Electric Demand Power [W] !Hourly
519,1,Whole Building,Facility Total Electric Demand Power [W] !Hourly
520,1,WEST ZONE,Zone Oscillating Temperatures Time [hr] !Hourly
521,1,EAST ZONE,Zone Oscillating Temperatures Time [hr] !Hourly
522,1,WEST PLENUM,Zone Oscillating Temperatures Time [hr] !Hourly
523,1,EAST PLENUM,Zone Oscillating Temperatures Time [hr] !Hourly
524,1,Facility,Facility Any Zone Oscillating Temperatures Time [hr] !Hourly
525,1,WEST ZONE,Zone Heating Setpoint Not Met Time [hr] !Hourly
526,1,WEST ZONE,Zone Heating Setpoint Not Met While Occupied Time [hr] !Hourly
527,1,WEST ZONE,Zone Cooling Setpoint Not Met Time [hr] !Hourly
528,1,WEST ZONE,Zone Cooling Setpoint Not Met While Occupied Time [hr] !Hourly
529,1,EAST ZONE,Zone Heating Setpoint Not Met Time [hr] !Hourly
530,1,EAST ZONE,Zone Heating Setpoint Not Met While Occupied Time [hr] !Hourly
531,1,EAST ZONE,Zone Cooling Setpoint Not Met Time [hr] !Hourly
532,1,EAST ZONE,Zone Cooling Setpoint Not Met While Occupied Time [hr] !Hourly
533,1,WEST PLENUM,Zone Heating Setpoint Not Met Time [hr] !Hourly
534,1,WEST PLENUM,Zone Heating Setpoint Not Met While Occupied Time [hr] !Hourly
535,1,WEST PLENUM,Zone Cooling Setpoint Not Met Time [hr] !Hourly
536,1,WEST PLENUM,Zone Cooling Setpoint Not Met While Occupied Time [hr] !Hourly
537,1,EAST PLENUM,Zone Heating Setpoint Not Met Time [hr] !Hourly
538,1,EAST PLENUM,Zone Heating Setpoint Not Met While Occupied Time [hr] !Hourly
539,1,EAST PLENUM,Zone Cooling Setpoint Not Met Time [hr] !Hourly
540,1,EAST PLENUM,Zone Cooling Setpoint Not Met While Occupied Time [hr] !Hourly
541,1,WEST ZONE VAV SYSTEM,Zone Air Terminal VAV Damper Position [] !Hourly
542,1,WEST ZONE VAV SYSTEM,Zone Air Terminal Minimum Air Flow Fraction [] !Hourly
543,1,WEST ZONE VAV SYSTEM,Zone Air Terminal Outdoor Air Volume Flow Rate [m3/s] !Hourly
544,1,EAST ZONE VAV SYSTEM,Zone Air Terminal VAV Damper Position [] !Hourly
545,1,EAST ZONE VAV SYSTEM,Zone Air Terminal Minimum Air Flow Fraction [] !Hourly
546,1,EAST ZONE VAV SYSTEM,Zone Air Terminal Outdoor Air Volume Flow Rate [m3/s] !Hourly
599,1,WEST ZONE CW COOLING COIL,Cooling Coil Total Cooling Rate [W] !TimeStep
600,1,WEST ZONE CW COOLING COIL,Cooling Coil Sensible Cooling Rate [W] !TimeStep
603,1,EAST ZONE CW COOLING COIL,Cooling Coil Total Cooling Rate [W] !TimeStep
604,1,EAST ZONE CW COOLING COIL,Cooling Coil Sensible Cooling Rate [W] !TimeStep
605,1,WEST ZONE SUPPLY FAN,Fan Electric Power [W] !Hourly
606,1,WEST ZONE SUPPLY FAN,Fan Rise in Air Temperature [deltaC] !Hourly
607,1,WEST ZONE SUPPLY FAN,Fan Heat Gain to Air [W] !Hourly
608,1,WEST ZONE SUPPLY FAN,Fan Electric Energy [J] !Hourly
639,1,WEST ZONE SUPPLY FAN,Fan Air Mass Flow Rate [kg/s] !Hourly
640,1,EAST ZONE SUPPLY FAN,Fan Electric Power [W] !Hourly
641,1,EAST ZONE SUPPLY FAN,Fan Rise in Air Temperature [deltaC] !Hourly
642,1,EAST ZONE SUPPLY FAN,Fan Heat Gain to Air [W] !Hourly
643,1,EAST ZONE SUPPLY FAN,Fan Electric Energy [J] !Hourly
644,1,EAST ZONE SUPPLY FAN,Fan Air Mass Flow Rate [kg/s] !Hourly
645,1,WEST DATA CENTER IEC,Evaporative Cooler Total Stage Effectiveness [] !TimeStep
646,1,WEST DATA CENTER IEC,Evaporative Cooler Operating Mode Status [] !TimeStep
647,1,EAST DATA CENTER IEC,Evaporative Cooler Total Stage Effectiveness [] !TimeStep
648,1,EAST DATA CENTER IEC,Evaporative Cooler Operating Mode Status [] !TimeStep
649,1,WEST DATA CENTER DEC,Evaporative Cooler Stage Effectiveness [] !TimeStep
650,1,EAST DATA CENTER DEC,Evaporative Cooler Stage Effectiveness [] !TimeStep
662,1,WEST DATA CENTER IEC,Evaporative Cooler Electric Power [W] !TimeStep
663,1,WEST DATA CENTER IEC,Evaporative Cooler Water Volume [m3] !TimeStep
726,1,EAST DATA CENTER IEC,Evaporative Cooler Electric Power [W] !TimeStep
727,1,EAST DATA CENTER IEC,Evaporative Cooler Water Volume [m3] !TimeStep
730,1,WEST DATA CENTER DEC,Evaporative Cooler Electric Power [W] !TimeStep
731,1,WEST DATA CENTER DEC,Evaporative Cooler Water Volume [m3] !TimeStep
734,1,EAST DATA CENTER DEC,Evaporative Cooler Electric Power [W] !TimeStep
735,1,EAST DATA CENTER DEC,Evaporative Cooler Water Volume [m3] !TimeStep
737,1,WEST DX COOLING COIL,Cooling Coil Total Cooling Rate [W] !TimeStep
739,1,WEST DX COOLING COIL,Cooling Coil Sensible Cooling Rate [W] !TimeStep
741,1,EAST DX COOLING COIL,Cooling Coil Total Cooling Rate [W] !TimeStep
743,1,EAST DX COOLING COIL,Cooling Coil Sensible Cooling Rate [W] !TimeStep
766,1,CHILLER,Chiller Evaporator Cooling Rate [W] !Hourly
788,1,CHILLER,Chiller Evaporator Inlet Temperature [C] !Hourly
789,1,CHILLER,Chiller Evaporator Outlet Temperature [C] !Hourly
790,1,CHILLER,Chiller Condenser Heat Transfer Rate [W] !Hourly
802,1,CHILLER,Chiller Condenser Inlet Temperature [C] !Hourly
803,1,CHILLER,Chiller Condenser Outlet Temperature [C] !Hourly
892,1,WEST ZONE INLET NODE,System Node Temperature [C] !TimeStep
893,1,WEST ZONE INLET NODE,System Node Mass Flow Rate [kg/s] !TimeStep
894,1,WEST OUTSIDE AIR INLET NODE,System Node Temperature [C] !TimeStep
895,1,WEST OUTSIDE AIR INLET NODE,System Node Mass Flow Rate [kg/s] !TimeStep
896,1,WEST IEC SECONDARY AIR INLET NODE,System Node Temperature [C] !TimeStep
897,1,WEST IEC SECONDARY AIR INLET NODE,System Node Mass Flow Rate [kg/s] !TimeStep
898,1,WEST ZONE DEC OUTLET NODE,System Node Temperature [C] !TimeStep
899,1,WEST ZONE DEC OUTLET NODE,System Node Setpoint Temperature [C] !TimeStep
900,1,WEST ZONE IEC OUTLET NODE,System Node Temperature [C] !TimeStep
901,1,WEST ZONE IEC OUTLET NODE,System Node Setpoint Temperature [C] !TimeStep
902,1,WEST ZONE CCOIL AIR OUTLET NODE,System Node Temperature [C] !TimeStep
903,1,WEST ZONE CCOIL AIR OUTLET NODE,System Node Setpoint Temperature [C] !TimeStep
904,1,WEST AIR LOOP OUTLET NODE,System Node Temperature [C] !TimeStep
905,1,WEST AIR LOOP OUTLET NODE,System Node Setpoint Temperature [C] !TimeStep
906,1,EAST ZONE INLET NODE,System Node Temperature [C] !TimeStep
907,1,EAST ZONE INLET NODE,System Node Mass Flow Rate [kg/s] !TimeStep
908,1,EAST OUTSIDE AIR INLET NODE,System Node Temperature [C] !TimeStep
909,1,EAST OUTSIDE AIR INLET NODE,System Node Mass Flow Rate [kg/s] !TimeStep
910,1,EAST IEC SECONDARY AIR INLET NODE,System Node Temperature [C] !TimeStep
911,1,EAST IEC SECONDARY AIR INLET NODE,System Node Mass Flow Rate [kg/s] !TimeStep
912,1,EAST ZONE DEC OUTLET NODE,System Node Temperature [C] !TimeStep
913,1,EAST ZONE DEC OUTLET NODE,System Node Setpoint Temperature [C] !TimeStep
914,1,EAST ZONE IEC OUTLET NODE,System Node Temperature [C] !TimeStep
915,1,EAST ZONE IEC OUTLET NODE,System Node Setpoint Temperature [C] !TimeStep
916,1,EAST ZONE CCOIL AIR OUTLET NODE,System Node Temperature [C] !TimeStep
917,1,EAST ZONE CCOIL AIR OUTLET NODE,System Node Setpoint Temperature [C] !TimeStep
918,1,EAST AIR LOOP OUTLET NODE,System Node Temperature [C] !TimeStep
919,1,EAST AIR LOOP OUTLET NODE,System Node Setpoint Temperature [C] !TimeStep
920,1,WEST ZONE RETURN AIR NODE,System Node Temperature [C] !TimeStep
921,1,WEST ZONE RETURN AIR NODE,System Node Mass Flow Rate [kg/s] !TimeStep
922,1,WEST ZONE MIXED AIR NODE,System Node Temperature [C] !TimeStep
923,1,WEST ZONE MIXED AIR NODE,System Node Mass Flow Rate [kg/s] !TimeStep
924,1,WEST ZONE SUPPLY FAN OUTLET NODE,System Node Temperature [C] !TimeStep
925,1,EAST ZONE SUPPLY FAN OUTLET NODE,System Node Temperature [C] !TimeStep
926,1,WEST IEC SECONDARY AIR OUTLET NODE,System Node Temperature [C] !TimeStep
927,1,WEST IEC SECONDARY AIR OUTLET NODE,System Node Mass Flow Rate [kg/s] !TimeStep
End of Data Dictionary
1,WHOLEYEARDAY,  37.62,-122.40,  -8.00,   2.00
2,1, 1, 1, 0, 1, 0.00,15.00,Tuesday
6,6.825
239,1.0300298866314462
312,21.997157910837787
313,33.706217552600318
349,23.09833097337328
350,29.834364459484335
599,0.0
600,0.0
603,0.0
604,0.0
645,0.06884273137677022
647,0.0
649,0.5133333333333332
650,0.6999999999999997
662,2.1181365082678687
663,0.0
726,0.0
727,0.0
730,7.560429943901359
731,0.0034707889463777179
734,2.1250750700967209
735,0.001999489585104984
737,0.0
739,0.0
741,0.0
743,0.0
892,15.952201353998883
893,3.084453133333333
894,6.825
895,0.7965658837674085
896,6.825
897,0.2142587845949029
898,16.736941865611877
899,20.596880533333335
900,16.20553628420305
901,20.596880533333335
902,16.20553628420305
903,20.596880533333335
904,16.20553628420305
905,20.596880533333335
906,20.669105559554475
907,6.835886063630867
908,6.825
909,0.24515871775332483
910,6.825
911,0.0
912,22.20970477722767
913,30.483920600000006
914,22.20970477722767
915,30.483920600000006
916,22.20970477722767
917,30.483920600000006
918,22.20970477722767
919,30.483920600000006
920,22.104065495919636
921,3.084453133333333
922,17.90913845127024
923,3.084453133333333
924,18.253146831895636
925,22.729860609832085
926,7.655628770871921
927,0.2142587845949029
646,0.13333333333333334
648,0.0
2,1, 1, 1, 0, 1,15.00,30.00,Tuesday
6,6.95
239,1.082111765304405
312,25.241581890466237
313,32.28771893760432
349,29.351921599405139
350,24.25601616505017
599,0.0
600,0.0
603,0.0
604,0.0
645,0.14380542450718035
647,0.02824121886152672
649,0.41999999999999995
650,0.6533333333333331
662,6.633692526442141
663,0.0
726,6.605056893026332
727,0.0
730,8.879486340052513
731,0.0023215071460738975
734,4.081430312644743
735,0.004635499024517289
737,0.0
739,0.0
741,0.0
743,0.0
892,15.959376156120327
893,3.1345824
894,6.9499999999999979
895,1.139789414414817
896,6.9499999999999979
897,0.44588158653012069
898,17.571160554335536
899,22.2930716
900,16.173718251022028
901,22.2930716
902,16.173718251022028
903,22.2930716
904,16.173718251022028
905,22.2930716
906,23.80167046846134
907,6.715634227966953
908,6.9499999999999979
909,0.6323729741241277
910,6.9499999999999979
911,0.23283557352195489
912,25.79148480523559
913,31.976430800000004
914,25.51289611333037
915,31.976430800000004
916,25.51289611333037
917,31.976430800000004
918,25.51289611333037
919,31.976430800000004
920,24.982520275129958
921,3.1345824
922,19.21822416695681
923,3.1345824
924,19.549567167158178
925,26.991505626093859
926,9.661079857541287
927,0.44588158653012069
646,0.3333333333333333
648,0.06666666666666667
2,1, 1, 1, 0, 1,30.00,45.00,Tuesday
6,7.075
239,1.034012245834975
312,26.478152407434803
313,32.48138041401923
349,35.48224711088202
350,20.454112006906738
599,0.0
600,0.0
603,0.0
604,0.0
645,0.12672153103571083
647,0.03901211194036179
649,0.5133333333333332
650,0.6533333333333331
662,11.60294726770239
663,0.0
726,19.189486091755428
727,0.0
730,11.270884280873032
731,0.005346592889583627
734,4.423202452973853
735,0.006438774308107131
737,0.0
739,0.0
741,0.0
743,0.0
892,17.482060786998635
893,3.527933533333334
894,7.075
895,1.1410398348028248
896,7.075
897,0.501350213750916
898,17.352055723449234
899,23.979104733333334
900,16.11876309635244
901,23.979104733333334
902,16.11876309635244
903,23.979104733333334
904,16.11876309635244
905,23.979104733333334
906,26.496380676327495
907,6.781784863630866
908,7.075
909,1.1413190264936453
910,7.075
911,0.3507074216720891
912,28.57374843601566
913,31.362561666666669
914,27.916428857886087
915,31.362561666666669
916,27.916428857886087
917,31.362561666666669
918,27.916428857886087
919,31.362561666666669
920,26.34099377826822
921,3.527933533333334
922,19.703588439383326
923,3.527933533333334
924,20.018998107718649
925,30.23469972947476
926,10.783970422081524
927,0.501350213750916
646,0.39999999999999999
648,0.06666666666666667
2,1, 1, 1, 0, 1,45.00,60.00,Tuesday
6,7.2
239,1.025354464464136
312,27.654903834940403
313,33.53662499676045
349,38.10011926679108
350,19.89128512323389
599,0.0
600,0.0
603,8.246983855408656
604,8.246983855409744
645,0.13128721932795762
647,0.13619858062042207
649,0.5599999999999998
650,0.41999999999999995
662,100.48297732687682
663,0.0
726,36.91298877598658
727,0.0
730,10.057858871968485
731,0.0031327815936233918
734,4.7067127284558609
735,0.006655537262301141
737,1004.5024647835381
739,32.944924835473589
741,0.0
743,0.0
892,17.747294516320136
893,3.6623312228389239
894,7.200000000000003
895,1.3291897484760289
896,7.200000000000003
897,0.8588245733323703
898,18.524126332744708
899,22.272722666666668
900,17.348368292772429
901,22.272722666666668
902,17.33710286108016
903,22.272722666666668
904,17.33710286108016
905,22.272722666666668
906,26.773832361852717
907,6.8251801923030419
908,7.200000000000003
909,1.3284980040636037
910,7.200000000000003
911,1.1120403697803112
912,30.417710901759326
913,32.035573666666667
914,27.10136729714181
915,32.035573666666667
916,27.10136729714181
917,32.035573666666667
918,27.10021038325957
919,32.035573666666667
920,27.67481800874101
921,3.6623312228389239
922,20.20058674144168
923,3.6623312228389239
924,20.522846849317526
925,32.14232978903701
926,9.090685730037274
927,0.8588245733323703
646,0.26666666666666669
648,0.3333333333333333
2,1, 1, 1, 0, 1, 0.00,60.00,Tuesday
133,18324.134161414404
134,14606.399662551285
135,3293.0533823965684
136,13936.849545599995
137,10219.334400000002
138,3293.0533823965684
139,36223.58720636226
173,5.274101825861914
174,17.361098873918058
175,6.799122030233651
176,0.5011630678118054
177,24.866504393153528
178,0.0928741735521061
179,1.0
180,0.0
181,0.0
182,0.0
183,0.0
184,0.0
185,1.0
186,0.0
187,0.0
188,0.0
189,0.0
190,0.0
191,-19.498836932188195
192,18324.134161414404
193,14606.399662551285
194,3293.0533823965684
195,13936.849545599995
196,10219.334400000002
197,3293.0533823965684
198,36223.58720636226
199,33062.1801431516
200,28914.46991565583
201,6197.665005880743
202,15546.354479999996
203,11399.520000000002
204,6197.665005880743
205,68174.31506468819
209,10.144764920660752
210,23.450550947417704
211,6.75411128873316
212,0.3558214591148392
213,30.862177248700747
214,0.07372022091955914
215,1.0
216,0.0
217,0.0
218,0.0
219,0.0
220,0.0
221,1.0
222,0.0
223,0.0
224,0.0
225,0.0
226,0.0
227,-19.64417854088516
228,33062.1801431516
229,28914.46991565583
230,6197.665005880743
231,15546.354479999996
232,11399.520000000002
233,6197.665005880743
234,68174.31506468819
315,20.0
316,23.0
352,20.0
353,23.0
387,0.0
388,0.0
422,0.0
423,0.0
525,0.0
526,0.0
527,0.75
528,0.0
529,0.0
530,0.0
531,0.75
532,0.0
533,0.0
534,0.0
535,0.0
536,0.0
537,0.0
538,0.0
539,0.0
540,0.0
314,4.0
351,4.0
386,0.0
421,0.0
517,104426.30227105043
518,3761.1363458322094
519,108187.43861688263
520,0.0
521,0.0
522,0.016666666666666668
523,0.03333333333333333
524,0.05
541,0.5373950964041008
542,0.4
543,0.9149709321511713
544,0.971470206562197
545,0.4
546,0.6950341053649717
605,1173.506263477724
606,0.3282552892594831
607,1056.1556371299516
608,4224622.548519807
639,3.3523250723763979
640,2362.09438318002
641,0.30715249158988536
642,2125.8849448620185
643,8503539.779448072
644,6.789621336882932
766,0.3845294877183282
788,10.20438628660638
789,10.15097428736367
790,0.44021676245562649
802,9.93128551286264
803,9.931289523824061
2,1, 1, 1, 0, 2, 0.00,15.00,Tuesday
6,7.2
239,1.0280244997990145
312,26.35463075309673
313,35.058480302276638
349,31.100697373209884
350,31.8478639305565
599,0.0
600,0.0
603,0.0
604,0.0
645,0.05246972497683709
647,0.02178162351437922
649,0.5599999999999998
650,0.6999999999999997
662,5.263111134896042
663,0.0
726,0.3148562365437739
727,0.0
730,8.094903214009867
731,0.0036256607114062836
734,7.090078369333603
735,0.00758921155900259
737,0.0
739,0.0
741,0.0
743,0.0
892,19.526688092640755
893,3.3935518666666666
894,7.200000000000003
895,0.8321264853324736
896,7.200000000000003
897,0.20903146736993548
898,20.232501781422678
899,25.040011133333338
900,19.780107367355016
901,25.040011133333338
902,19.780107367355016
903,25.040011133333338
904,19.780107367355016
905,25.040011133333338
906,24.94491332762094
907,6.818587596964201
908,7.200000000000003
909,1.062569623076582
910,7.200000000000003
911,0.10182798430550622
912,25.92715341796739
913,32.82981433333333
914,25.71059365414368
915,32.82981433333333
916,25.71059365414368
917,32.82981433333333
918,25.71059365414368
919,32.82981433333333
920,26.417095351199
921,3.3935518666666666
922,21.611076699258367
923,3.3935518666666666
924,21.933247312577863
925,27.876603271504544
926,8.43828401187672
927,0.20903146736993548
646,0.13333333333333334
648,0.13333333333333334
2,1, 1, 1, 0, 2,15.00,30.00,Tuesday
6,7.2
239,1.0510840402688917
312,33.10330619947292
313,24.277413743921927
349,38.65021150035872
350,21.305186631151935
599,0.0
600,0.0
603,0.9535199938812156
604,0.9535199938805496
645,0.1736085886478443
647,0.08883789206458079
649,0.32666666666666668
650,0.2333333333333333
662,195.42077733385734
663,0.0
726,16.541784700770088
727,0.0
730,5.143617877464084
731,0.0025614016382774888
734,1.5854615429013526
735,0.0013338904308356109
737,3093.146159358859
739,1934.9444573087876
741,0.0
743,0.0
892,18.936721010887898
893,2.8357672895055905
894,7.200000000000003
895,0.94979151612451
896,7.200000000000003
897,1.4990418166295679
898,23.166000172412504
899,25.480562266666668
900,19.177339860798754
901,25.480562266666668
902,18.858351962762577
903,25.480562266666668
904,18.858351962762577
905,25.480562266666668
906,29.5572238326676
907,6.953241530297533
908,7.200000000000003
909,0.970376570089011
910,7.200000000000003
911,0.6537247070079453
912,33.64878097710374
913,34.14824326666667
914,31.07272211935846
915,34.14824326666667
916,31.07272211935846
917,34.14824326666667
918,31.072588617334746