Program Version,EnergyPlus, Version 8.8.0-Unknown, YMD=2019.07.12 12:57
1,5,Environment Title[],Latitude[deg],Longitude[deg],Time Zone[],Elevation[m]
2,6,Day of Simulation[],Month[],Day of Month[],DST Indicator[1=yes 0=no],Hour[],StartMinute[],EndMinute[],DayType
3,3,Cumulative Day of Simulation[],Month[],Day of Month[],DST Indicator[1=yes 0=no],DayType  ! When Daily Report Variables Requested
4,2,Cumulative Days of Simulation[],Month[]  ! When Monthly Report Variables Requested
5,1,Cumulative Days of Simulation[] ! When Run Period Report Variables Requested
6,1,Environment,Site Outdoor Air Drybulb Temperature [C] !TimeStep
133,1,WESTDATACENTER_EQUIP,ITE CPU Electric Power [W] !Hourly
134,1,WESTDATACENTER_EQUIP,ITE Fan Electric Power [W] !Hourly
135,1,WESTDATACENTER_EQUIP,ITE UPS Electric Power [W] !Hourly
136,1,WESTDATACENTER_EQUIP,ITE CPU Electric Power at Design Inlet Conditions [W] !Hourly
137,1,WESTDATACENTER_EQUIP,ITE Fan Electric Power at Design Inlet Conditions [W] !Hourly
138,1,WESTDATACENTER_EQUIP,ITE UPS Heat Gain to Zone Rate [W] !Hourly
139,1,WESTDATACENTER_EQUIP,ITE Total Heat Gain to Zone Rate [W] !Hourly
173,1,WESTDATACENTER_EQUIP,ITE Standard Density Air Volume Flow Rate [m3/s] !Hourly
174,1,WESTDATACENTER_EQUIP,ITE Air Inlet Dry-Bulb Temperature [C] !Hourly
175,1,WESTDATACENTER_EQUIP,ITE Air Inlet Dewpoint Temperature [C] !Hourly
176,1,WESTDATACENTER_EQUIP,ITE Air Inlet Relative Humidity [%] !Hourly
177,1,WESTDATACENTER_EQUIP,ITE Air Outlet Dry-Bulb Temperature [C] !Hourly
178,1,WESTDATACENTER_EQUIP,ITE Supply Heat Index [] !Hourly
179,1,WESTDATACENTER_EQUIP,ITE Air Inlet Operating Range Exceeded Time [hr] !Hourly
180,1,WESTDATACENTER_EQUIP,ITE Air Inlet Dry-Bulb Temperature Above Operating Range Time [hr] !Hourly
181,1,WESTDATACENTER_EQUIP,ITE Air Inlet Dry-Bulb Temperature Below Operating Range Time [hr] !Hourly
182,1,WESTDATACENTER_EQUIP,ITE Air Inlet Dewpoint Temperature Above Operating Range Time [hr] !Hourly
183,1,WESTDATACENTER_EQUIP,ITE Air Inlet Dewpoint Temperature Below Operating Range Time [hr] !Hourly
184,1,WESTDATACENTER_EQUIP,ITE Air Inlet Relative Humidity Above Operating Range Time [hr] !Hourly
185,1,WESTDATACENTER_EQUIP,ITE Air Inlet Relative Humidity Below Operating Range Time [hr] !Hourly
186,1,WESTDATACENTER_EQUIP,ITE Air Inlet Dry-Bulb Temperature Difference Above Operating Range [deltaC] !Hourly
187,1,WESTDATACENTER_EQUIP,ITE Air Inlet Dry-Bulb Temperature Difference Below Operating Range [deltaC] !Hourly
188,1,WESTDATACENTER_EQUIP,ITE Air Inlet Dewpoint Temperature Difference Above Operating Range [deltaC] !Hourly
189,1,WESTDATACENTER_EQUIP,ITE Air Inlet Dewpoint Temperature Difference Below Operating Range [deltaC] !Hourly
190,1,WESTDATACENTER_EQUIP,ITE Air Inlet Relative Humidity Difference Above Operating Range [%] !Hourly
191,1,WESTDATACENTER_EQUIP,ITE Air Inlet Relative Humidity Difference Below Operating Range [%] !Hourly
192,1,WEST ZONE,Zone ITE CPU Electric Power [W] !Hourly
193,1,WEST ZONE,Zone ITE Fan Electric Power [W] !Hourly
194,1,WEST ZONE,Zone ITE UPS Electric Power [W] !Hourly
195,1,WEST ZONE,Zone ITE CPU Electric Power at Design Inlet Conditions [W] !Hourly
196,1,WEST ZONE,Zone ITE Fan Electric Power at Design Inlet Conditions [W] !Hourly
197,1,WEST ZONE,Zone ITE UPS Heat Gain to Zone Rate [W] !Hourly
198,1,WEST ZONE,Zone ITE Total Heat Gain to Zone Rate [W] !Hourly
199,1,EASTDATACENTER_EQUIP,ITE CPU Electric Power [W] !Hourly
200,1,EASTDATACENTER_EQUIP,ITE Fan Electric Power [W] !Hourly
201,1,EASTDATACENTER_EQUIP,ITE UPS Electric Power [W] !Hourly
202,1,EASTDATACENTER_EQUIP,ITE CPU Electric Power at Design Inlet Conditions [W] !Hourly
203,1,EASTDATACENTER_EQUIP,ITE Fan Electric Power at Design Inlet Conditions [W] !Hourly
204,1,EASTDATACENTER_EQUIP,ITE UPS Heat Gain to Zone Rate [W] !Hourly
205,1,EASTDATACENTER_EQUIP,ITE Total Heat Gain to Zone Rate [W] !Hourly
209,1,EASTDATACENTER_EQUIP,ITE Standard Density Air Volume Flow Rate [m3/s] !Hourly
210,1,EASTDATACENTER_EQUIP,ITE Air Inlet Dry-Bulb Temperature [C] !Hourly
211,1,EASTDATACENTER_EQUIP,ITE Air Inlet Dewpoint Temperature [C] !Hourly
212,1,EASTDATACENTER_EQUIP,ITE Air Inlet Relative Humidity [%] !Hourly
213,1,EASTDATACENTER_EQUIP,ITE Air Outlet Dry-Bulb Temperature [C] !Hourly
214,1,EASTDATACENTER_EQUIP,ITE Supply Heat Index [] !Hourly
215,1,EASTDATACENTER_EQUIP,ITE Air Inlet Operating Range Exceeded Time [hr] !Hourly
216,1,EASTDATACENTER_EQUIP,ITE Air Inlet Dry-Bulb Temperature Above Operating Range Time [hr] !Hourly
217,1,EASTDATACENTER_EQUIP,ITE Air Inlet Dry-Bulb Temperature Below Operating Range Time [hr] !Hourly
218,1,EASTDATACENTER_EQUIP,ITE Air Inlet Dewpoint Temperature Above Operating Range Time [hr] !Hourly
219,1,EASTDATACENTER_EQUIP,ITE Air Inlet Dewpoint Temperature Below Operating Range Time [hr] !Hourly
220,1,EASTDATACENTER_EQUIP,ITE Air Inlet Relative Humidity Above Operating Range Time [hr] !Hourly
221,1,EASTDATACENTER_EQUIP,ITE Air Inlet Relative Humidity Below Operating Range Time [hr] !Hourly
222,1,EASTDATACENTER_EQUIP,ITE Air Inlet Dry-Bulb Temperature Difference Above Operating Range [deltaC] !Hourly
223,1,EASTDATACENTER_EQUIP,ITE Air Inlet Dry-Bulb Temperature Difference Below Operating Range [deltaC] !Hourly
224,1,EASTDATACENTER_EQUIP,ITE Air Inlet Dewpoint Temperature Difference Above Operating Range [deltaC] !Hourly
225,1,EASTDATACENTER_EQUIP,ITE Air Inlet Dewpoint Temperature Difference Below Operating Range [deltaC] !Hourly
226,1,EASTDATACENTER_EQUIP,ITE Air Inlet Relative Humidity Difference Above Operating Range [%] !Hourly
227,1,EASTDATACENTER_EQUIP,ITE Air Inlet Relative Humidity Difference Below Operating Range [%] !Hourly
228,1,EAST ZONE,Zone ITE CPU Electric Power [W] !Hourly
229,1,EAST ZONE,Zone ITE Fan Electric Power [W] !Hourly
230,1,EAST ZONE,Zone ITE UPS Electric Power [W] !Hourly
231,1,EAST ZONE,Zone ITE CPU Electric Power at Design Inlet Conditions [W] !Hourly
232,1,EAST ZONE,Zone ITE Fan Electric Power at Design Inlet Conditions [W] !Hourly
233,1,EAST ZONE,Zone ITE UPS Heat Gain to Zone Rate [W] !Hourly
234,1,EAST ZONE,Zone ITE Total Heat Gain to Zone Rate [W] !Hourly
239,1,EMS,Power Utilization Effectiveness [] !TimeStep
312,1,WEST ZONE,Zone Air Temperature [C] !TimeStep
313,1,WEST ZONE,Zone Air Relative Humidity [%] !TimeStep
314,1,WEST ZONE,Zone Thermostat Control Type [] !Hourly
315,1,WEST ZONE,Zone Thermostat Heating Setpoint Temperature [C] !Hourly
316,1,WEST ZONE,Zone Thermostat Cooling Setpoint Temperature [C] !Hourly
349,1,EAST ZONE,Zone Air Temperature [C] !TimeStep
350,1,EAST ZONE,Zone Air Relative Humidity [%] !TimeStep
351,1,EAST ZONE,Zone Thermostat Control Type [] !Hourly
352,1,EAST ZONE,Zone Thermostat Heating Setpoint Temperature [C] !Hourly
353,1,EAST ZONE,Zone Thermostat Cooling Setpoint Temperature [C] !Hourly
386,1,WEST PLENUM,Zone Thermostat Control Type [] !Hourly
387,1,WEST PLENUM,Zone Thermostat Heating Setpoint Temperature [C] !Hourly
388,1,WEST PLENUM,Zone Thermostat Cooling Setpoint Temperature [C] !Hourly
421,1,EAST PLENUM,Zone Thermostat Control Type [] !Hourly
422,1,EAST PLENUM,Zone Thermostat Heating Setpoint Temperature [C] !Hourly
423,1,EAST PLENUM,Zone Thermostat Cooling Setpoint Temperature [C] !Hourly
517,1,Whole Building,Facility Total Building Electric Demand Power [W] !Hourly
518,1,Whole Building,Facility Total HVAC Electric Demand Power [W] !Hourly
519,1,Whole Building,Facility Total Electric Demand Power [W] !Hourly
520,1,WEST ZONE,Zone Oscillating Temperatures Time [hr] !Hourly
521,1,EAST ZONE,Zone Oscillating Temperatures Time [hr] !Hourly
522,1,WEST PLENUM,Zone Oscillating Temperatures Time [hr] !Hourly
523,1,EAST PLENUM,Zone Oscillating Temperatures Time [hr] !Hourly
524,1,Facility,Facility Any Zone Oscillating Temperatures Time [hr] !Hourly
525,1,WEST ZONE,Zone Heating Setpoint Not Met Time [hr] !Hourly
526,1,WEST ZONE,Zone Heating Setpoint Not Met While Occupied Time [hr] !Hourly
527,1,WEST ZONE,Zone Cooling Setpoint Not Met Time [hr] !Hourly
528,1,WEST ZONE,Zone Cooling Setpoint Not Met While Occupied Time [hr] !Hourly
529,1,EAST ZONE,Zone Heating Setpoint Not Met Time [hr] !Hourly
530,1,EAST ZONE,Zone Heating Setpoint Not Met While Occupied Time [hr] !Hourly
531,1,EAST ZONE,Zone Cooling Setpoint Not Met Time [hr] !Hourly
532,1,EAST ZONE,Zone Cooling Setpoint Not Met While Occupied Time [hr] !Hourly
533,1,WEST PLENUM,Zone Heating Setpoint Not Met Time [hr] !Hourly
534,1,WEST PLENUM,Zone Heating Setpoint Not Met While Occupied Time [hr] !Hourly
535,1,WEST PLENUM,Zone Cooling Setpoint Not Met Time [hr] !Hourly
536,1,WEST PLENUM,Zone Cooling Setpoint Not Met While Occupied Time [hr] !Hourly
537,1,EAST PLENUM,Zone Heating Setpoint Not Met Time [hr] !Hourly
538,1,EAST PLENUM,Zone Heating Setpoint Not Met While Occupied Time [hr] !Hourly
539,1,EAST PLENUM,Zone Cooling Setpoint Not Met Time [hr] !Hourly
540,1,EAST PLENUM,Zone Cooling Setpoint Not Met While Occupied Time [hr] !Hourly
541,1,WEST ZONE VAV SYSTEM,Zone Air Terminal VAV Damper Position [] !Hourly
542,1,WEST ZONE VAV SYSTEM,Zone Air Terminal Minimum Air Flow Fraction [] !Hourly
543,1,WEST ZONE VAV SYSTEM,Zone Air Terminal Outdoor Air Volume Flow Rate [m3/s] !Hourly
544,1,EAST ZONE VAV SYSTEM,Zone Air Terminal VAV Damper Position [] !Hourly
545,1,EAST ZONE VAV SYSTEM,Zone Air Terminal Minimum Air Flow Fraction [] !Hourly
546,1,EAST ZONE VAV SYSTEM,Zone Air Terminal Outdoor Air Volume Flow Rate [m3/s] !Hourly
599,1,WEST ZONE CW COOLING COIL,Cooling Coil Total Cooling Rate [W] !TimeStep
600,1,WEST ZONE CW COOLING COIL,Cooling Coil Sensible Cooling Rate [W] !TimeStep
603,1,EAST ZONE CW COOLING COIL,Cooling Coil Total Cooling Rate [W] !TimeStep
604,1,EAST ZONE CW COOLING COIL,Cooling Coil Sensible Cooling Rate [W] !TimeStep
605,1,WEST ZONE SUPPLY FAN,Fan Electric Power [W] !Hourly
606,1,WEST ZONE SUPPLY FAN,Fan Rise in Air Temperature [deltaC] !Hourly
607,1,WEST ZONE SUPPLY FAN,Fan Heat Gain to Air [W] !Hourly
608,1,WEST ZONE SUPPLY FAN,Fan Electric Energy [J] !Hourly
639,1,WEST ZONE SUPPLY FAN,Fan Air Mass Flow Rate [kg/s] !Hourly
640,1,EAST ZONE SUPPLY FAN,Fan Electric Power [W] !Hourly
641,1,EAST ZONE SUPPLY FAN,Fan Rise in Air Temperature [deltaC] !Hourly
642,1,EAST ZONE SUPPLY FAN,Fan Heat Gain to Air [W] !Hourly
643,1,EAST ZONE SUPPLY FAN,Fan Electric Energy [J] !Hourly
644,1,EAST ZONE SUPPLY FAN,Fan Air Mass Flow Rate [kg/s] !Hourly
645,1,WEST DATA CENTER IEC,Evaporative Cooler Total Stage Effectiveness [] !TimeStep
646,1,WEST DATA CENTER IEC,Evaporative Cooler Operating Mode Status [] !TimeStep
647,1,EAST DATA CENTER IEC,Evaporative Cooler Total Stage Effectiveness [] !TimeStep
648,1,EAST DATA CENTER IEC,Evaporative Cooler Operating Mode Status [] !TimeStep
649,1,WEST DATA CENTER DEC,Evaporative Cooler Stage Effectiveness [] !TimeStep
650,1,EAST DATA CENTER DEC,Evaporative Cooler Stage Effectiveness [] !TimeStep
662,1,WEST DATA CENTER IEC,Evaporative Cooler Electric Power [W] !TimeStep
663,1,WEST DATA CENTER IEC,Evaporative Cooler Water Volume [m3] !TimeStep
726,1,EAST DATA CENTER IEC,Evaporative Cooler Electric Power [W] !TimeStep
727,1,EAST DATA CENTER IEC,Evaporative Cooler Water Volume [m3] !TimeStep
730,1,WEST DATA CENTER DEC,Evaporative Cooler Electric Power [W] !TimeStep
731,1,WEST DATA CENTER DEC,Evaporative Cooler Water Volume [m3] !TimeStep
734,1,EAST DATA CENTER DEC,Evaporative Cooler Electric Power [W] !TimeStep
735,1,EAST DATA CENTER DEC,Evaporative Cooler Water Volume [m3] !TimeStep
737,1,WEST DX COOLING COIL,Cooling Coil Total Cooling Rate [W] !TimeStep
739,1,WEST DX COOLING COIL,Cooling Coil Sensible Cooling Rate [W] !TimeStep
741,1,EAST DX COOLING COIL,Cooling Coil Total Cooling Rate [W] !TimeStep
743,1,EAST DX COOLING COIL,Cooling Coil Sensible Cooling Rate [W] !TimeStep
766,1,CHILLER,Chiller Evaporator Cooling Rate [W] !Hourly
788,1,CHILLER,Chiller Evaporator Inlet Temperature [C] !Hourly
789,1,CHILLER,Chiller Evaporator Outlet Temperature [C] !Hourly
790,1,CHILLER,Chiller Condenser Heat Transfer Rate [W] !Hourly
802,1,CHILLER,Chiller Condenser Inlet Temperature [C] !Hourly
803,1,CHILLER,Chiller Condenser Outlet Temperature [C] !Hourly
892,1,WEST ZONE INLET NODE,System Node Temperature [C] !TimeStep
893,1,WEST ZONE INLET NODE,System Node Mass Flow Rate [kg/s] !TimeStep
894,1,WEST OUTSIDE AIR INLET NODE,System Node Temperature [C] !TimeStep
895,1,WEST OUTSIDE AIR INLET NODE,System Node Mass Flow Rate [kg/s] !TimeStep
896,1,WEST IEC SECONDARY AIR INLET NODE,System Node Temperature [C] !TimeStep
897,1,WEST IEC SECONDARY AIR INLET NODE,System Node Mass Flow Rate [kg/s] !TimeStep
898,1,WEST ZONE DEC OUTLET NODE,System Node Temperature [C] !TimeStep
899,1,WEST ZONE DEC OUTLET NODE,System Node Setpoint Temperature [C] !TimeStep
900,1,WEST ZONE IEC OUTLET NODE,System Node Temperature [C] !TimeStep
901,1,WEST ZONE IEC OUTLET NODE,System Node Setpoint Temperature [C] !TimeStep
902,1,WEST ZONE CCOIL AIR OUTLET NODE,System Node Temperature [C] !TimeStep
903,1,WEST ZONE CCOIL AIR OUTLET NODE,System Node Setpoint Temperature [C] !TimeStep
904,1,WEST AIR LOOP OUTLET NODE,System Node Temperature [C] !TimeStep
905,1,WEST AIR LOOP OUTLET NODE,System Node Setpoint Temperature [C] !TimeStep
906,1,EAST ZONE INLET NODE,System Node Temperature [C] !TimeStep
907,1,EAST ZONE INLET NODE,System Node Mass Flow Rate [kg/s] !TimeStep
908,1,EAST OUTSIDE AIR INLET NODE,System Node Temperature [C] !TimeStep
909,1,EAST OUTSIDE AIR INLET NODE,System Node Mass Flow Rate [kg/s] !TimeStep
910,1,EAST IEC SECONDARY AIR INLET NODE,System Node Temperature [C] !TimeStep
911,1,EAST IEC SECONDARY AIR INLET NODE,System Node Mass Flow Rate [kg/s] !TimeStep
912,1,EAST ZONE DEC OUTLET NODE,System Node Temperature [C] !TimeStep
913,1,EAST ZONE DEC OUTLET NODE,System Node Setpoint Temperature [C] !TimeStep
914,1,EAST ZONE IEC OUTLET NODE,System Node Temperature [C] !TimeStep
915,1,EAST ZONE IEC OUTLET NODE,System Node Setpoint Temperature [C] !TimeStep
916,1,EAST ZONE CCOIL AIR OUTLET NODE,System Node Temperature [C] !TimeStep
917,1,EAST ZONE CCOIL AIR OUTLET NODE,System Node Setpoint Temperature [C] !TimeStep
918,1,EAST AIR LOOP OUTLET NODE,System Node Temperature [C] !TimeStep
919,1,EAST AIR LOOP OUTLET NODE,System Node Setpoint Temperature [C] !TimeStep
920,1,WEST ZONE RETURN AIR NODE,System Node Temperature [C] !TimeStep
921,1,WEST ZONE RETURN AIR NODE,System Node Mass Flow Rate [kg/s] !TimeStep
922,1,WEST ZONE MIXED AIR NODE,System Node Temperature [C] !TimeStep
923,1,WEST ZONE MIXED AIR NODE,System Node Mass Flow Rate [kg/s] !TimeStep
924,1,WEST ZONE SUPPLY FAN OUTLET NODE,System Node Temperature [C] !TimeStep
925,1,EAST ZONE SUPPLY FAN OUTLET NODE,System Node Temperature [C] !TimeStep
926,1,WEST IEC SECONDARY AIR OUTLET NODE,System Node Temperature [C] !TimeStep
927,1,WEST IEC SECONDARY AIR OUTLET NODE,System Node Mass Flow Rate [kg/s] !TimeStep
End of Data Dictionary
1,WHOLEYEARDAY,  37.62,-122.40,  -8.00,   2.00
2,1, 1, 1, 0, 1, 0.00,15.00,Tuesday
6,6.825
239,1.0300298866314462
312,21.60633743476844
313,35.558696071527439
349,23.92853762181939
350,27.178930999933468
599,0.0
600,0.0
603,0.0
604,0.0
645,0.10010202212587592
647,0.0
649,0.46666666666666659
650,0.6999999999999997
662,8.133448319824783
663,0.0
726,0.0
727,0.0
730,10.504532864963235
731,0.0036371570624675316
734,0.0
735,0.0
737,0.0
739,0.0
741,0.0
743,0.0
892,15.529288142502655
893,3.1120872895055897
894,6.825
895,1.055166180731009
896,6.825
897,0.4072812312331774
898,15.623621917613584
899,20.7390306
900,14.859554950942182
901,20.7390306
902,14.859554950942182
903,20.7390306
904,14.859554950942182
905,20.7390306
906,22.044028835207404
907,6.784722592303041
908,6.825
909,0.0
910,6.825
911,0.0
912,24.022439050457217
913,36.44385293333333
914,24.022439050457217
915,36.44385293333333
916,24.022439050457217
917,36.44385293333333
918,24.022439050457217
919,36.44385293333333
920,21.658504371118697
921,3.1120872895055897
922,17.299541940275394
923,3.1120872895055897
924,17.65906579066939
925,24.022439050457217
926,8.018135460387083
927,0.4072812312331774
646,0.2
648,0.0
2,1, 1, 1, 0, 1,15.00,30.00,Tuesday
6,6.95
239,1.1125645442577357
312,24.76881821851108
313,33.28986006103545
349,33.202155558837457
350,17.580485471285589
599,0.0
600,0.0
603,0.0
604,0.0
645,0.19151028557762946
647,0.0519395389976376
649,0.41999999999999995
650,0.6533333333333331
662,17.21610846674516
663,0.0
726,26.21495416660591
727,0.0
730,8.205013342360712
731,0.0026608101303498409
734,4.744415006391398
735,0.005970857648681537
737,0.0
739,0.0
741,0.0
743,0.0
892,15.559012838051264
893,2.369505666666667
894,6.9499999999999979
895,0.8448961609064023
896,6.9499999999999979
897,0.6904061883922001
898,16.85262646151654
899,21.99363806666667
900,14.91207980632865
901,21.99363806666667
902,14.91207980632865
903,21.99363806666667
904,14.91207980632865
905,21.99363806666667
906,26.463085270469457
907,6.142329116314056
908,6.9499999999999979
909,0.5099206959057713
910,6.9499999999999979
911,0.4074011539581343
912,28.646927205100075
913,34.886284266666667
914,27.878717659870838
915,34.886284266666667
916,27.878717659870838
917,34.886284266666667
918,27.878717659870838
919,34.886284266666667
920,24.430990970359696
921,2.369505666666667
922,18.356137757787648
923,2.369505666666667
924,18.745636042758215
925,30.547185242575059
926,9.568581750711536
927,0.6904061883922001
646,0.3333333333333333
648,0.13333333333333334
2,1, 1, 1, 0, 1,30.00,45.00,Tuesday
6,7.075
239,1.0226319019299255
312,26.082716467898459
313,33.45966175320595
349,40.803422561371167
350,14.232130696192309
599,0.0
600,0.0
603,13.050090663472055
604,13.0500906634719
645,0.11795795226519675
647,0.053986375408588239
649,0.46666666666666659
650,0.5133333333333332
662,98.71820332838949
663,0.0
726,6.974041314537598
727,0.0
730,10.23662664452532
731,0.004039997321865019
734,3.278471240881992
735,0.0049765661360905559
737,843.6434781164514
739,24.39930891361132
741,0.0
743,0.0
892,16.868131611137004
893,2.8796852
894,7.075
895,0.8656824355333058
896,7.075
897,0.8736841788633042
898,17.599573294895298
899,21.9762548
900,16.478303320588564
901,21.9762548
902,16.468978624825973
903,21.9762548
904,16.468978624825973
905,21.9762548
906,29.600791678269084
907,5.9741157473168109
908,7.075
909,0.8812000872103414
910,7.075
911,0.411168003439079
912,34.080111752526899
913,36.12124779999999
914,32.502968463562918
915,36.12124779999999
916,32.502968463562918
917,36.12124779999999
918,32.50113338443557
919,36.12124779999999
920,26.028418839339645
921,2.8796852
922,19.35586044751556
923,2.8796852
924,19.714820677920359
925,35.46308630074059
926,9.642024850345294
927,0.8736841788633042
646,0.3333333333333333
648,0.2
2,1, 1, 1, 0, 1,45.00,60.00,Tuesday
6,7.2
239,1.0153559273653692
312,24.925023767774783
313,37.73941598410338
349,41.032411416533857
350,15.428450673944278
599,0.0
600,0.0
603,0.0
604,0.0
645,0.19163903909286204
647,0.0816957029242991
649,0.41999999999999995
650,0.3733333333333333
662,5.202865521051945
663,0.0
726,27.5388827444978
727,0.0
730,9.802041386217504
731,0.0033431628515505418
734,2.409447300704471
735,0.0030038236479572706
737,0.0
739,0.0
741,0.0
743,0.0
892,16.243351133775009
893,2.7460982666666675
894,7.200000000000003
895,0.9402847837895351
896,7.200000000000003
897,0.5587363233173741
898,16.404464856895456
899,21.46611746666667
900,14.763216238642438
901,21.46611746666667
902,14.763216238642438
903,21.46611746666667
904,14.763216238642438
905,21.46611746666667
906,29.72632014472163
907,5.972234178319564
908,7.200000000000003
909,1.1401905982794094
910,7.200000000000003
911,0.6426776866925562
912,34.050990023639119
913,34.51218346666666
914,31.496595757877104
915,34.51218346666666
916,31.496595757877104
917,34.51218346666666
918,31.496595757877104
919,34.51218346666666
920,24.9064635638224
921,2.7460982666666675
922,18.070278562581739
923,2.7460982666666675
924,18.447480643206565
925,34.91320327537465
926,10.459985447295179
927,0.5587363233173741
646,0.4666666666666666
648,0.26666666666666669
2,1, 1, 1, 0, 1, 0.00,60.00,Tuesday
133,15009.261070404871
134,11291.692306909532
135,2630.0953377314395
136,13936.849545599995
137,10219.334400000002
138,2630.0953377314395
139,28931.048715045843
173,4.105375015924585
174,15.577138222231227
175,7.881181291998795
176,0.6032247177583163
177,23.2216186465175
178,0.11273335753785342
179,1.0
180,0.0
181,0.0
182,0.0
183,0.0
184,0.0
185,1.0
186,0.0
187,0.0
188,0.0
189,0.0
190,0.0
191,-19.396775282241685
192,15009.261070404871
193,11291.692306909532
194,2630.0953377314395
195,13936.849545599995
196,10219.334400000002
197,2630.0953377314395
198,28931.048715045843
199,36302.03024587945
200,32154.158033977765
201,6845.618827985718
202,15546.354479999996
203,11399.520000000002
204,6845.618827985718
205,75301.80710784292
209,11.223057358517068
210,25.013624186533965
211,5.873743158579371
212,0.3143899853432234
213,32.42486736439818
214,0.08122376089231412
215,1.0
216,0.0
217,0.0
218,0.0
219,0.0
220,0.0
221,1.0
222,0.0
223,0.0
224,0.0
225,0.0
226,0.0
227,-19.685610014656775
228,36302.03024587945
229,32154.158033977765
230,6845.618827985718
231,15546.354479999996
232,11399.520000000002
233,6845.618827985718
234,75301.80710784292
315,20.0
316,23.0
352,20.0
353,23.0
387,0.0
388,0.0
422,0.0
423,0.0
525,0.0
526,0.0
527,0.75
528,0.0
529,0.0
530,0.0
531,1.0
532,0.0
533,0.0
534,0.0
535,0.0
536,0.0
537,0.0
538,0.0
539,0.0
540,0.0
314,4.0
351,4.0
386,0.0
421,0.0
517,104261.25582288878
518,3396.301631512616
519,107657.5574544014
520,0.0
521,0.0
522,0.08333333333333333
523,0.05
524,0.13333333333333334
541,0.44514251263503049
542,0.4
543,0.7695095892144221
544,0.8897318209879037
545,0.4
546,0.5255943994053723
605,1075.1805402817367
606,0.37129611159854838
607,967.662486253563
608,3870649.945014253
639,2.7768441057097315
640,2107.349914801553
641,0.2988363796625505
642,1896.6149233213973
643,7586459.693285589
644,6.218350408563368
766,0.6390248037381616
788,10.204820289361959
789,10.151404104229064
790,0.7315636075190567
802,9.921911960284998
803,9.921918625779949
2,1, 1, 1, 0, 2, 0.00,15.00,Tuesday
6,7.2
239,1.0187700934814584
312,30.586973642068405
313,28.607326603666836
349,43.125935392105009
350,14.185781497779024
599,0.0
600,0.0
603,0.1202165733542239
604,0.12021657335674203
645,0.24911282678947306
647,0.055901609801537247
649,0.41999999999999995
650,0.32666666666666668
662,200.7288606961331
663,0.0
726,3.6845825218284409
727,0.0
730,11.784789480235738
731,0.004596515377877266
734,2.123141857985405
735,0.002505469112729568
737,2788.3704781461806
739,148.89253745587946
741,0.0
743,0.0
892,16.233463500855409
893,2.4447563333333335
894,7.200000000000003
895,0.8310334871150342
896,7.200000000000003
897,1.6657463734109799
898,19.83762443021576
899,24.084294266666669
900,16.416426498812205
901,24.084294266666669
902,16.378594985215626
903,24.084294266666669
904,16.378594985215626
905,24.084294266666669
906,31.29360836683476
907,6.14486524964739
908,7.200000000000003
909,1.2584872030834729
910,7.200000000000003
911,0.31772162559310976
912,34.89479951829359
913,36.295963666666668
914,33.58830112136741
915,36.295963666666668
916,33.58830112136741
917,36.295963666666668
918,33.58828423656095
919,36.295963666666668
920,30.233809287052958
921,2.4447563333333335
922,22.43238226424602
923,2.4447563333333335
924,22.824933334095797
925,35.54238024311366
926,11.120524840389035
927,1.6657463734109799
646,0.39999999999999999
648,0.26666666666666669
2,1, 1, 1, 0, 2,15.00,30.00,Tuesday
6,7.2
239,1.0141873663397812
312,29.00087864865856
313,31.107279610248644
349,44.759575977680977
350,13.036224058963123
599,0.0
600,0.0
603,15.43210684558326
604,15.432106845587093
645,0.19613210925015207
647,0.0870950472470896
649,0.46666666666666659
650,0.27999999999999999
662,105.12244507354805
663,0.0
726,16.004742264846617
727,0.0
730,10.937993299231284
731,0.002942878354203864
734,2.7794105918055607
735,0.003766271371205503
737,968.0743734100728
739,62.01636573412768
741,0.0
743,0.0
892,16.574050059928945
893,2.629606466666667
894,7.200000000000003
895,1.125326995770695
896,7.200000000000003
897,1.1284395472920106
898,18.00067801899721
899,19.918875666666673
900,16.171462494967196
901,19.918875666666673
902,16.146212827582695
903,19.918875666666673
904,16.146212827582695
905,19.918875666666673
906,30.664007993916746
907,6.329741823305795
908,7.200000000000003
909,1.5394168864272069
910,7.200000000000003
911,0.6565661765884463
912,34.50827697836981
913,35.22746513333333
914,31.821575771195488
915,35.22746513333333
916,31.821575771195488
917,35.22746513333333
918,31.81940892627473
919,35.22746513333333
920,28.999020384434315