Program Version,EnergyPlus, Version 8.8.0-Unknown, YMD=2019.07.12 13:31
1,5,Environment Title[],Latitude[deg],Longitude[deg],Time Zone[],Elevation[m]
2,6,Day of Simulation[],Month[],Day of Month[],DST Indicator[1=yes 0=no],Hour[],StartMinute[],EndMinute[],DayType
3,3,Cumulative Day of Simulation[],Month[],Day of Month[],DST Indicator[1=yes 0=no],DayType  ! When Daily Report Variables Requested
4,2,Cumulative Days of Simulation[],Month[]  ! When Monthly Report Variables Requested
5,1,Cumulative Days of Simulation[] ! When Run Period Report Variables Requested
6,1,Environment,Site Outdoor Air Drybulb Temperature [C] !TimeStep
133,1,WESTDATACENTER_EQUIP,ITE CPU Electric Power [W] !Hourly
134,1,WESTDATACENTER_EQUIP,ITE Fan Electric Power [W] !Hourly
135,1,WESTDATACENTER_EQUIP,ITE UPS Electric Power [W] !Hourly
136,1,WESTDATACENTER_EQUIP,ITE CPU Electric Power at Design Inlet Conditions [W] !Hourly
137,1,WESTDATACENTER_EQUIP,ITE Fan Electric Power at Design Inlet Conditions [W] !Hourly
138,1,WESTDATACENTER_EQUIP,ITE UPS Heat Gain to Zone Rate [W] !Hourly
139,1,WESTDATACENTER_EQUIP,ITE Total Heat Gain to Zone Rate [W] !Hourly
173,1,WESTDATACENTER_EQUIP,ITE Standard Density Air Volume Flow Rate [m3/s] !Hourly
174,1,WESTDATACENTER_EQUIP,ITE Air Inlet Dry-Bulb Temperature [C] !Hourly
175,1,WESTDATACENTER_EQUIP,ITE Air Inlet Dewpoint Temperature [C] !Hourly
176,1,WESTDATACENTER_EQUIP,ITE Air Inlet Relative Humidity [%] !Hourly
177,1,WESTDATACENTER_EQUIP,ITE Air Outlet Dry-Bulb Temperature [C] !Hourly
178,1,WESTDATACENTER_EQUIP,ITE Supply Heat Index [] !Hourly
179,1,WESTDATACENTER_EQUIP,ITE Air Inlet Operating Range Exceeded Time [hr] !Hourly
180,1,WESTDATACENTER_EQUIP,ITE Air Inlet Dry-Bulb Temperature Above Operating Range Time [hr] !Hourly
181,1,WESTDATACENTER_EQUIP,ITE Air Inlet Dry-Bulb Temperature Below Operating Range Time [hr] !Hourly
182,1,WESTDATACENTER_EQUIP,ITE Air Inlet Dewpoint Temperature Above Operating Range Time [hr] !Hourly
183,1,WESTDATACENTER_EQUIP,ITE Air Inlet Dewpoint Temperature Below Operating Range Time [hr] !Hourly
184,1,WESTDATACENTER_EQUIP,ITE Air Inlet Relative Humidity Above Operating Range Time [hr] !Hourly
185,1,WESTDATACENTER_EQUIP,ITE Air Inlet Relative Humidity Below Operating Range Time [hr] !Hourly
186,1,WESTDATACENTER_EQUIP,ITE Air Inlet Dry-Bulb Temperature Difference Above Operating Range [deltaC] !Hourly
187,1,WESTDATACENTER_EQUIP,ITE Air Inlet Dry-Bulb Temperature Difference Below Operating Range [deltaC] !Hourly
188,1,WESTDATACENTER_EQUIP,ITE Air Inlet Dewpoint Temperature Difference Above Operating Range [deltaC] !Hourly
189,1,WESTDATACENTER_EQUIP,ITE Air Inlet Dewpoint Temperature Difference Below Operating Range [deltaC] !Hourly
190,1,WESTDATACENTER_EQUIP,ITE Air Inlet Relative Humidity Difference Above Operating Range [%] !Hourly
191,1,WESTDATACENTER_EQUIP,ITE Air Inlet Relative Humidity Difference Below Operating Range [%] !Hourly
192,1,WEST ZONE,Zone ITE CPU Electric Power [W] !Hourly
193,1,WEST ZONE,Zone ITE Fan Electric Power [W] !Hourly
194,1,WEST ZONE,Zone ITE UPS Electric Power [W] !Hourly
195,1,WEST ZONE,Zone ITE CPU Electric Power at Design Inlet Conditions [W] !Hourly
196,1,WEST ZONE,Zone ITE Fan Electric Power at Design Inlet Conditions [W] !Hourly
197,1,WEST ZONE,Zone ITE UPS Heat Gain to Zone Rate [W] !Hourly
198,1,WEST ZONE,Zone ITE Total Heat Gain to Zone Rate [W] !Hourly
199,1,EASTDATACENTER_EQUIP,ITE CPU Electric Power [W] !Hourly
200,1,EASTDATACENTER_EQUIP,ITE Fan Electric Power [W] !Hourly
201,1,EASTDATACENTER_EQUIP,ITE UPS Electric Power [W] !Hourly
202,1,EASTDATACENTER_EQUIP,ITE CPU Electric Power at Design Inlet Conditions [W] !Hourly
203,1,EASTDATACENTER_EQUIP,ITE Fan Electric Power at Design Inlet Conditions [W] !Hourly
204,1,EASTDATACENTER_EQUIP,ITE UPS Heat Gain to Zone Rate [W] !Hourly
205,1,EASTDATACENTER_EQUIP,ITE Total Heat Gain to Zone Rate [W] !Hourly
209,1,EASTDATACENTER_EQUIP,ITE Standard Density Air Volume Flow Rate [m3/s] !Hourly
210,1,EASTDATACENTER_EQUIP,ITE Air Inlet Dry-Bulb Temperature [C] !Hourly
211,1,EASTDATACENTER_EQUIP,ITE Air Inlet Dewpoint Temperature [C] !Hourly
212,1,EASTDATACENTER_EQUIP,ITE Air Inlet Relative Humidity [%] !Hourly
213,1,EASTDATACENTER_EQUIP,ITE Air Outlet Dry-Bulb Temperature [C] !Hourly
214,1,EASTDATACENTER_EQUIP,ITE Supply Heat Index [] !Hourly
215,1,EASTDATACENTER_EQUIP,ITE Air Inlet Operating Range Exceeded Time [hr] !Hourly
216,1,EASTDATACENTER_EQUIP,ITE Air Inlet Dry-Bulb Temperature Above Operating Range Time [hr] !Hourly
217,1,EASTDATACENTER_EQUIP,ITE Air Inlet Dry-Bulb Temperature Below Operating Range Time [hr] !Hourly
218,1,EASTDATACENTER_EQUIP,ITE Air Inlet Dewpoint Temperature Above Operating Range Time [hr] !Hourly
219,1,EASTDATACENTER_EQUIP,ITE Air Inlet Dewpoint Temperature Below Operating Range Time [hr] !Hourly
220,1,EASTDATACENTER_EQUIP,ITE Air Inlet Relative Humidity Above Operating Range Time [hr] !Hourly
221,1,EASTDATACENTER_EQUIP,ITE Air Inlet Relative Humidity Below Operating Range Time [hr] !Hourly
222,1,EASTDATACENTER_EQUIP,ITE Air Inlet Dry-Bulb Temperature Difference Above Operating Range [deltaC] !Hourly
223,1,EASTDATACENTER_EQUIP,ITE Air Inlet Dry-Bulb Temperature Difference Below Operating Range [deltaC] !Hourly
224,1,EASTDATACENTER_EQUIP,ITE Air Inlet Dewpoint Temperature Difference Above Operating Range [deltaC] !Hourly
225,1,EASTDATACENTER_EQUIP,ITE Air Inlet Dewpoint Temperature Difference Below Operating Range [deltaC] !Hourly
226,1,EASTDATACENTER_EQUIP,ITE Air Inlet Relative Humidity Difference Above Operating Range [%] !Hourly
227,1,EASTDATACENTER_EQUIP,ITE Air Inlet Relative Humidity Difference Below Operating Range [%] !Hourly
228,1,EAST ZONE,Zone ITE CPU Electric Power [W] !Hourly
229,1,EAST ZONE,Zone ITE Fan Electric Power [W] !Hourly
230,1,EAST ZONE,Zone ITE UPS Electric Power [W] !Hourly
231,1,EAST ZONE,Zone ITE CPU Electric Power at Design Inlet Conditions [W] !Hourly
232,1,EAST ZONE,Zone ITE Fan Electric Power at Design Inlet Conditions [W] !Hourly
233,1,EAST ZONE,Zone ITE UPS Heat Gain to Zone Rate [W] !Hourly
234,1,EAST ZONE,Zone ITE Total Heat Gain to Zone Rate [W] !Hourly
239,1,EMS,Power Utilization Effectiveness [] !TimeStep
312,1,WEST ZONE,Zone Air Temperature [C] !TimeStep
313,1,WEST ZONE,Zone Air Relative Humidity [%] !TimeStep
314,1,WEST ZONE,Zone Thermostat Control Type [] !Hourly
315,1,WEST ZONE,Zone Thermostat Heating Setpoint Temperature [C] !Hourly
316,1,WEST ZONE,Zone Thermostat Cooling Setpoint Temperature [C] !Hourly
349,1,EAST ZONE,Zone Air Temperature [C] !TimeStep
350,1,EAST ZONE,Zone Air Relative Humidity [%] !TimeStep
351,1,EAST ZONE,Zone Thermostat Control Type [] !Hourly
352,1,EAST ZONE,Zone Thermostat Heating Setpoint Temperature [C] !Hourly
353,1,EAST ZONE,Zone Thermostat Cooling Setpoint Temperature [C] !Hourly
386,1,WEST PLENUM,Zone Thermostat Control Type [] !Hourly
387,1,WEST PLENUM,Zone Thermostat Heating Setpoint Temperature [C] !Hourly
388,1,WEST PLENUM,Zone Thermostat Cooling Setpoint Temperature [C] !Hourly
421,1,EAST PLENUM,Zone Thermostat Control Type [] !Hourly
422,1,EAST PLENUM,Zone Thermostat Heating Setpoint Temperature [C] !Hourly
423,1,EAST PLENUM,Zone Thermostat Cooling Setpoint Temperature [C] !Hourly
517,1,Whole Building,Facility Total Building Electric Demand Power [W] !Hourly
518,1,Whole Building,Facility Total HVAC Electric Demand Power [W] !Hourly
519,1,Whole Building,Facility Total Electric Demand Power [W] !Hourly
520,1,WEST ZONE,Zone Oscillating Temperatures Time [hr] !Hourly
521,1,EAST ZONE,Zone Oscillating Temperatures Time [hr] !Hourly
522,1,WEST PLENUM,Zone Oscillating Temperatures Time [hr] !Hourly
523,1,EAST PLENUM,Zone Oscillating Temperatures Time [hr] !Hourly
524,1,Facility,Facility Any Zone Oscillating Temperatures Time [hr] !Hourly
525,1,WEST ZONE,Zone Heating Setpoint Not Met Time [hr] !Hourly
526,1,WEST ZONE,Zone Heating Setpoint Not Met While Occupied Time [hr] !Hourly
527,1,WEST ZONE,Zone Cooling Setpoint Not Met Time [hr] !Hourly
528,1,WEST ZONE,Zone Cooling Setpoint Not Met While Occupied Time [hr] !Hourly
529,1,EAST ZONE,Zone Heating Setpoint Not Met Time [hr] !Hourly
530,1,EAST ZONE,Zone Heating Setpoint Not Met While Occupied Time [hr] !Hourly
531,1,EAST ZONE,Zone Cooling Setpoint Not Met Time [hr] !Hourly
532,1,EAST ZONE,Zone Cooling Setpoint Not Met While Occupied Time [hr] !Hourly
533,1,WEST PLENUM,Zone Heating Setpoint Not Met Time [hr] !Hourly
534,1,WEST PLENUM,Zone Heating Setpoint Not Met While Occupied Time [hr] !Hourly
535,1,WEST PLENUM,Zone Cooling Setpoint Not Met Time [hr] !Hourly
536,1,WEST PLENUM,Zone Cooling Setpoint Not Met While Occupied Time [hr] !Hourly
537,1,EAST PLENUM,Zone Heating Setpoint Not Met Time [hr] !Hourly
538,1,EAST PLENUM,Zone Heating Setpoint Not Met While Occupied Time [hr] !Hourly
539,1,EAST PLENUM,Zone Cooling Setpoint Not Met Time [hr] !Hourly
540,1,EAST PLENUM,Zone Cooling Setpoint Not Met While Occupied Time [hr] !Hourly
541,1,WEST ZONE VAV SYSTEM,Zone Air Terminal VAV Damper Position [] !Hourly
542,1,WEST ZONE VAV SYSTEM,Zone Air Terminal Minimum Air Flow Fraction [] !Hourly
543,1,WEST ZONE VAV SYSTEM,Zone Air Terminal Outdoor Air Volume Flow Rate [m3/s] !Hourly
544,1,EAST ZONE VAV SYSTEM,Zone Air Terminal VAV Damper Position [] !Hourly
545,1,EAST ZONE VAV SYSTEM,Zone Air Terminal Minimum Air Flow Fraction [] !Hourly
546,1,EAST ZONE VAV SYSTEM,Zone Air Terminal Outdoor Air Volume Flow Rate [m3/s] !Hourly
599,1,WEST ZONE CW COOLING COIL,Cooling Coil Total Cooling Rate [W] !TimeStep
600,1,WEST ZONE CW COOLING COIL,Cooling Coil Sensible Cooling Rate [W] !TimeStep
603,1,EAST ZONE CW COOLING COIL,Cooling Coil Total Cooling Rate [W] !TimeStep
604,1,EAST ZONE CW COOLING COIL,Cooling Coil Sensible Cooling Rate [W] !TimeStep
605,1,WEST ZONE SUPPLY FAN,Fan Electric Power [W] !Hourly
606,1,WEST ZONE SUPPLY FAN,Fan Rise in Air Temperature [deltaC] !Hourly
607,1,WEST ZONE SUPPLY FAN,Fan Heat Gain to Air [W] !Hourly
608,1,WEST ZONE SUPPLY FAN,Fan Electric Energy [J] !Hourly
639,1,WEST ZONE SUPPLY FAN,Fan Air Mass Flow Rate [kg/s] !Hourly
640,1,EAST ZONE SUPPLY FAN,Fan Electric Power [W] !Hourly
641,1,EAST ZONE SUPPLY FAN,Fan Rise in Air Temperature [deltaC] !Hourly
642,1,EAST ZONE SUPPLY FAN,Fan Heat Gain to Air [W] !Hourly
643,1,EAST ZONE SUPPLY FAN,Fan Electric Energy [J] !Hourly
644,1,EAST ZONE SUPPLY FAN,Fan Air Mass Flow Rate [kg/s] !Hourly
645,1,WEST DATA CENTER IEC,Evaporative Cooler Total Stage Effectiveness [] !TimeStep
646,1,WEST DATA CENTER IEC,Evaporative Cooler Operating Mode Status [] !TimeStep
647,1,EAST DATA CENTER IEC,Evaporative Cooler Total Stage Effectiveness [] !TimeStep
648,1,EAST DATA CENTER IEC,Evaporative Cooler Operating Mode Status [] !TimeStep
649,1,WEST DATA CENTER DEC,Evaporative Cooler Stage Effectiveness [] !TimeStep
650,1,EAST DATA CENTER DEC,Evaporative Cooler Stage Effectiveness [] !TimeStep
662,1,WEST DATA CENTER IEC,Evaporative Cooler Electric Power [W] !TimeStep
663,1,WEST DATA CENTER IEC,Evaporative Cooler Water Volume [m3] !TimeStep
726,1,EAST DATA CENTER IEC,Evaporative Cooler Electric Power [W] !TimeStep
727,1,EAST DATA CENTER IEC,Evaporative Cooler Water Volume [m3] !TimeStep
730,1,WEST DATA CENTER DEC,Evaporative Cooler Electric Power [W] !TimeStep
731,1,WEST DATA CENTER DEC,Evaporative Cooler Water Volume [m3] !TimeStep
734,1,EAST DATA CENTER DEC,Evaporative Cooler Electric Power [W] !TimeStep
735,1,EAST DATA CENTER DEC,Evaporative Cooler Water Volume [m3] !TimeStep
737,1,WEST DX COOLING COIL,Cooling Coil Total Cooling Rate [W] !TimeStep
739,1,WEST DX COOLING COIL,Cooling Coil Sensible Cooling Rate [W] !TimeStep
741,1,EAST DX COOLING COIL,Cooling Coil Total Cooling Rate [W] !TimeStep
743,1,EAST DX COOLING COIL,Cooling Coil Sensible Cooling Rate [W] !TimeStep
766,1,CHILLER,Chiller Evaporator Cooling Rate [W] !Hourly
788,1,CHILLER,Chiller Evaporator Inlet Temperature [C] !Hourly
789,1,CHILLER,Chiller Evaporator Outlet Temperature [C] !Hourly
790,1,CHILLER,Chiller Condenser Heat Transfer Rate [W] !Hourly
802,1,CHILLER,Chiller Condenser Inlet Temperature [C] !Hourly
803,1,CHILLER,Chiller Condenser Outlet Temperature [C] !Hourly
892,1,WEST ZONE INLET NODE,System Node Temperature [C] !TimeStep
893,1,WEST ZONE INLET NODE,System Node Mass Flow Rate [kg/s] !TimeStep
894,1,WEST OUTSIDE AIR INLET NODE,System Node Temperature [C] !TimeStep
895,1,WEST OUTSIDE AIR INLET NODE,System Node Mass Flow Rate [kg/s] !TimeStep
896,1,WEST IEC SECONDARY AIR INLET NODE,System Node Temperature [C] !TimeStep
897,1,WEST IEC SECONDARY AIR INLET NODE,System Node Mass Flow Rate [kg/s] !TimeStep
898,1,WEST ZONE DEC OUTLET NODE,System Node Temperature [C] !TimeStep
899,1,WEST ZONE DEC OUTLET NODE,System Node Setpoint Temperature [C] !TimeStep
900,1,WEST ZONE IEC OUTLET NODE,System Node Temperature [C] !TimeStep
901,1,WEST ZONE IEC OUTLET NODE,System Node Setpoint Temperature [C] !TimeStep
902,1,WEST ZONE CCOIL AIR OUTLET NODE,System Node Temperature [C] !TimeStep
903,1,WEST ZONE CCOIL AIR OUTLET NODE,System Node Setpoint Temperature [C] !TimeStep
904,1,WEST AIR LOOP OUTLET NODE,System Node Temperature [C] !TimeStep
905,1,WEST AIR LOOP OUTLET NODE,System Node Setpoint Temperature [C] !TimeStep
906,1,EAST ZONE INLET NODE,System Node Temperature [C] !TimeStep
907,1,EAST ZONE INLET NODE,System Node Mass Flow Rate [kg/s] !TimeStep
908,1,EAST OUTSIDE AIR INLET NODE,System Node Temperature [C] !TimeStep
909,1,EAST OUTSIDE AIR INLET NODE,System Node Mass Flow Rate [kg/s] !TimeStep
910,1,EAST IEC SECONDARY AIR INLET NODE,System Node Temperature [C] !TimeStep
911,1,EAST IEC SECONDARY AIR INLET NODE,System Node Mass Flow Rate [kg/s] !TimeStep
912,1,EAST ZONE DEC OUTLET NODE,System Node Temperature [C] !TimeStep
913,1,EAST ZONE DEC OUTLET NODE,System Node Setpoint Temperature [C] !TimeStep
914,1,EAST ZONE IEC OUTLET NODE,System Node Temperature [C] !TimeStep
915,1,EAST ZONE IEC OUTLET NODE,System Node Setpoint Temperature [C] !TimeStep
916,1,EAST ZONE CCOIL AIR OUTLET NODE,System Node Temperature [C] !TimeStep
917,1,EAST ZONE CCOIL AIR OUTLET NODE,System Node Setpoint Temperature [C] !TimeStep
918,1,EAST AIR LOOP OUTLET NODE,System Node Temperature [C] !TimeStep
919,1,EAST AIR LOOP OUTLET NODE,System Node Setpoint Temperature [C] !TimeStep
920,1,WEST ZONE RETURN AIR NODE,System Node Temperature [C] !TimeStep
921,1,WEST ZONE RETURN AIR NODE,System Node Mass Flow Rate [kg/s] !TimeStep
922,1,WEST ZONE MIXED AIR NODE,System Node Temperature [C] !TimeStep
923,1,WEST ZONE MIXED AIR NODE,System Node Mass Flow Rate [kg/s] !TimeStep
924,1,WEST ZONE SUPPLY FAN OUTLET NODE,System Node Temperature [C] !TimeStep
925,1,EAST ZONE SUPPLY FAN OUTLET NODE,System Node Temperature [C] !TimeStep
926,1,WEST IEC SECONDARY AIR OUTLET NODE,System Node Temperature [C] !TimeStep
927,1,WEST IEC SECONDARY AIR OUTLET NODE,System Node Mass Flow Rate [kg/s] !TimeStep
End of Data Dictionary
1,WHOLEYEARDAY,  37.62,-122.40,  -8.00,   2.00
2,1, 1, 1, 0, 1, 0.00,15.00,Tuesday
6,6.825
239,1.0300298866314462
312,21.676673064534158
313,32.87342673552215
349,23.888867195796835
350,27.249867761747667
599,0.0
600,0.0
603,0.0
604,0.0
645,0.21525086365069105
647,0.0
649,0.13999999999999999
650,0.6999999999999997
662,5.700137639245505
663,0.0
726,0.0
727,0.0
730,6.0
731,0.0014355022455813094
734,0.0
735,0.0
737,0.0
739,0.0
741,0.0
743,0.0
892,12.928194748682272
893,2.189746066666667
894,6.825
895,1.3161401393038886
896,6.825
897,0.5612596983055751
898,12.036642229886663
899,13.228211266666666
900,10.571500922285468
901,13.228211266666666
902,10.571500922285468
903,13.228211266666666
904,10.571500922285468
905,13.228211266666666
906,22.027044947684247
907,6.7197145876418828
908,6.825
909,0.0
910,6.825
911,0.0
912,23.980065232587426
913,39.02296799999999
914,23.980065232587426
915,39.02296799999999
916,23.980065232587426
917,39.02296799999999
918,23.980065232587426
919,39.02296799999999
920,21.75500449757261
921,2.189746066666667
922,12.737036035456516
923,2.189746066666667
924,13.139146067691556
925,23.980065232587426
926,9.817739218463523
927,0.5612596983055751
646,0.5333333333333333
648,0.0
2,1, 1, 1, 0, 1,15.00,30.00,Tuesday
6,6.95
239,1.0800229964206849
312,23.124961412348946
313,31.790514201799359
349,34.2503801748691
350,16.598509272778086
599,0.0
600,0.0
603,0.0
604,0.0
645,0.08535037199966969
647,0.0
649,0.09333333333333333
650,0.6999999999999997
662,0.5450374446736201
663,0.0
726,0.0
727,0.0
730,3.842252654967522
731,0.0007356431468113175
734,2.199137447682194
735,0.003155887376307432
737,0.0
739,0.0
741,0.0
743,0.0
892,13.92786201536934
893,2.132953933333334
894,6.9499999999999979
895,1.334543928115369
896,6.9499999999999979
897,0.18271784618676738
898,12.847620350432445
899,13.910569666666666
900,12.216076202544814
901,13.910569666666666
902,12.216076202544814
903,13.910569666666666
904,12.216076202544814
905,13.910569666666666
906,28.91090234023518
907,6.481840818644636
908,6.9499999999999979
909,0.2662747340682915
910,6.9499999999999979
911,0.0
912,31.626160076969904
913,36.999224000000008
914,31.626160076969904
915,36.999224000000008
916,31.626160076969904
917,36.999224000000008
918,31.626160076969904
919,36.999224000000008
920,22.938427608925239
921,2.132953933333334
922,13.20375431532553
923,2.132953933333334
924,13.610453368893833
925,32.44671706552028
926,9.35922066716395
927,0.18271784618676738
646,0.3333333333333333
648,0.0
2,1, 1, 1, 0, 1,30.00,45.00,Tuesday
6,7.075
239,1.0334963724120097
312,23.94258639154618
313,30.463822507583957
349,43.47138418967434
350,11.892256233989173
599,0.0
600,0.0
603,27.63231705130064
604,27.63231705130111
645,0.1739230539202905
647,0.021618656438689586
649,0.04666666666666666
650,0.5599999999999998
662,5.837871957535009
663,0.0
726,2.9098069178993959
727,0.0
730,2.0
731,0.000444185608253072
734,2.1960591198240175
735,0.0038558320014848328
737,0.0
739,0.0
741,0.0
743,0.0
892,12.881089238201682
893,2.336652066666667
894,7.075
895,1.6922480857283782
896,7.075
897,0.4742201527276515
898,11.906406877382273
899,12.5121378
900,10.69513859168096
901,12.5121378
902,10.69513859168096
903,12.5121378
904,10.69513859168096
905,12.5121378
906,31.77748291917895
907,6.530714080650142
908,7.075
909,1.2330982743581949
910,7.075
911,0.1697691746513649
912,35.35399981106149
913,36.7519466
914,34.64209777770558
915,36.7519466
916,34.64209777770558
917,36.7519466
918,34.63809623904449
919,36.7519466
920,23.858105397118128
921,2.336652066666667
922,11.883336899923834
923,2.336652066666667
924,12.288649591036576
925,36.38874879790192
926,9.285879140582683
927,0.4742201527276515
646,0.39999999999999999
648,0.06666666666666667
2,1, 1, 1, 0, 1,45.00,60.00,Tuesday
6,7.2
239,1.0217802981681004
312,23.25421268626457
313,33.12878976571867
349,44.65913673156841
350,11.734479683896936
599,0.0
600,0.0
603,7.427066137146511
604,7.427066137143795
645,0.21939640944942349
647,0.03422405153896736
649,0.09333333333333333
650,0.41999999999999995
662,100.26621811712939
663,0.0
726,0.21079207799003717
727,0.0
730,4.0
731,0.001176152980210894
734,2.1247498322612676
735,0.003143146456593044
737,0.0
739,0.0
741,0.0
743,0.0
892,13.205091851497152
893,2.2054122666666666
894,7.200000000000003
895,1.4375756208451314
896,7.200000000000003
897,1.0275559050375647
898,12.25681250901122
899,12.800471866666666
900,10.603385484014004
901,12.800471866666666
902,10.603385484014004
903,12.800471866666666
904,10.603385484014004
905,12.800471866666666
906,32.756903223086599
907,6.082489440325071
908,7.200000000000003
909,1.2655980748182124
910,7.200000000000003
911,0.12121864482311139
912,36.08477302204574
913,36.931783800000008
914,35.34469136807403
915,36.931783800000008
916,35.34469136807403
917,36.931783800000008
918,35.34364623905156
919,36.931783800000008
920,23.339631585845735
921,2.2054122666666666
922,12.654925616132204
923,2.2054122666666666
924,13.049305594486805
925,36.98206571247542
926,9.288673963551807
927,1.0275559050375647
646,0.39999999999999999
648,0.26666666666666669
2,1, 1, 1, 0, 1, 0.00,60.00,Tuesday
133,13121.919162546441
134,9404.444761428376
135,2252.6363923974814
136,13936.849545599995
137,10219.334400000002
138,2252.6363923974814
139,24779.0003163723
173,3.4404278998649215
174,14.561430046545502
175,5.040177617997401
176,0.5283596943450911
177,22.370973823677458
178,0.11162113884570353
179,1.0
180,0.0
181,0.0
182,0.0
183,0.0
184,0.0
185,1.0
186,0.0
187,0.0
188,0.0
189,0.0
190,0.0
191,-19.47164030565491
192,13121.919162546441
193,9404.444761428376
194,2252.6363923974814
195,13936.849545599995
196,10219.334400000002
197,2252.6363923974814
198,24779.0003163723
199,39090.66899771231
200,34942.65736084428
201,7403.332635855657
202,15546.354479999996
203,11399.520000000002
204,7403.332635855657
205,81436.65899441226
209,12.116477130207175
210,26.359009456945864
211,5.298261423105281
212,0.28943612550397437
213,33.784973958980099
214,0.08591314179856283
215,1.0
216,0.0
217,0.0
218,0.0
219,0.0
220,0.0
221,1.0
222,0.0
223,0.0
224,0.0
225,0.0
226,0.0
227,-19.710563874496026
228,39090.66899771231
229,34942.65736084428
230,7403.332635855657
231,15546.354479999996
232,11399.520000000002
233,7403.332635855657
234,81436.65899441226
315,20.0
316,23.0
352,20.0
353,23.0
387,0.0
388,0.0
422,0.0
423,0.0
525,0.0
526,0.0
527,0.5
528,0.0
529,0.0
530,0.0
531,1.0
532,0.0
533,0.0
534,0.0
535,0.0
536,0.0
537,0.0
538,0.0
539,0.0
540,0.0
314,4.0
351,4.0
386,0.0
421,0.0
517,106244.05931078454
518,3538.627477456146
519,109782.6867882407
520,0.0
521,0.0
522,0.016666666666666668
523,0.03333333333333333
524,0.05
541,0.35526692524289418
542,0.4
543,1.2002484301456587
544,0.923404559072713
545,0.4
546,0.5741108448973333
605,967.6458762349287
606,0.402125438817671
607,870.8812886114357
608,3483525.154445743
639,2.216191083333334
640,2188.103662032069
641,0.2988107923578482
642,1969.2932958288625
643,7877173.1833154479
644,6.453689731815432
766,1.3255337598052739
788,10.205723951610695
789,9.991923220140406
790,1.5174972540404297
802,9.941173035482374
803,9.941186861932096
2,1, 1, 1, 0, 2, 0.00,15.00,Tuesday
6,7.2
239,1.0234580432115262
312,22.443361926140307
313,36.01711845363784
349,48.51798060474169
350,9.567834948014009
599,0.0
600,0.0
603,22.703422125107158
604,22.703422125121418
645,0.22798891418333337
647,0.03767370587606285
649,0.16153846153846153
650,0.26923076923076919
662,10.076325365098315
663,0.0
726,0.19669972258669234
727,0.0
730,5.136228050186563
731,0.0012944926627092104
734,1.115558922222261
735,0.0018854803841630312
737,0.0
739,0.0
741,0.0
743,0.0
892,13.803930724412023
893,2.3060862307692306
894,7.199999999999999
895,1.2601955522523006
896,7.199999999999999
897,0.6945115392222543
898,13.17639927273028
899,13.410920615384614
900,11.62637379318232
901,13.410920615384614
902,11.62637379318232
903,13.410920615384614
904,11.62637379318232
905,13.410920615384614
906,34.80403167275945
907,6.449854939211703
908,7.199999999999999
909,1.55994167602733
910,7.199999999999999
911,0.139218987307834
912,38.117591947389019
913,38.38484876923076
914,37.457335787746668
915,38.38484876923076
916,37.457335787746668
917,38.38484876923076
918,37.454003838044
919,38.38484876923076
920,22.52553147247365
921,2.3060862307692306
922,13.852311113170499
923,2.3060862307692306
924,14.240725096547076
925,38.60485010270033
926,10.496159145625363
927,0.6945115392222543
646,0.6153846153846153
648,0.23076923076923079
2,1, 1, 1, 0, 2,15.00,30.00,Tuesday
6,7.2
239,1.0229938743157876
312,24.065747749297896
313,32.22318792132871
349,49.440364251046648
350,9.02895583691329
599,0.0
600,0.0
603,2.8833709173898058
604,2.8833709173805306
645,0.15363982356730425
647,0.0802235942979122
649,0.0
650,0.39999999999999999
662,2.115968958634024
663,0.0
726,10.876286897800199
727,0.0
730,0.0
731,0.0
734,1.2538090780300422
735,0.001719743229876507
737,0.0
739,0.0
741,0.0
743,0.0
892,13.431601705579663
893,1.908235
894,7.199999999999999
895,1.4305180372694569
896,7.199999999999999
897,0.33742338525438417
898,11.937391827099694
899,12.384510999999998
900,10.843921032714578
901,12.384510999999998
902,10.843921032714578
903,12.384510999999998
904,10.843921032714578
905,12.384510999999998
906,33.03599124220641
907,6.387630943553724
908,7.199999999999999
909,2.009285633551528
910,7.199999999999999
911,0.576717907249854
912,35.54565540231512
913,35.187434857142857
914,33.08017544171169
915,35.187434857142857
916,33.08017544171169
917,35.187434857142857
918,33.079769735508929
919,35.187434857142857
920,23.721560604494
921,1.908235
922,11.496287333711536
923,1.908235
924,11.937391827099694
925,36.03755730746841
926,8.839731793890476
927,0.33742338525438417
646,0.28571428571428567