Program Version,EnergyPlus, Version 8.8.0-Unknown, YMD=2019.07.16 14:20
1,5,Environment Title[],Latitude[deg],Longitude[deg],Time Zone[],Elevation[m]
2,6,Day of Simulation[],Month[],Day of Month[],DST Indicator[1=yes 0=no],Hour[],StartMinute[],EndMinute[],DayType
3,3,Cumulative Day of Simulation[],Month[],Day of Month[],DST Indicator[1=yes 0=no],DayType  ! When Daily Report Variables Requested
4,2,Cumulative Days of Simulation[],Month[]  ! When Monthly Report Variables Requested
5,1,Cumulative Days of Simulation[] ! When Run Period Report Variables Requested
6,1,Environment,Site Outdoor Air Drybulb Temperature [C] !TimeStep
133,1,WESTDATACENTER_EQUIP,ITE CPU Electric Power [W] !Hourly
134,1,WESTDATACENTER_EQUIP,ITE Fan Electric Power [W] !Hourly
135,1,WESTDATACENTER_EQUIP,ITE UPS Electric Power [W] !Hourly
136,1,WESTDATACENTER_EQUIP,ITE CPU Electric Power at Design Inlet Conditions [W] !Hourly
137,1,WESTDATACENTER_EQUIP,ITE Fan Electric Power at Design Inlet Conditions [W] !Hourly
138,1,WESTDATACENTER_EQUIP,ITE UPS Heat Gain to Zone Rate [W] !Hourly
139,1,WESTDATACENTER_EQUIP,ITE Total Heat Gain to Zone Rate [W] !Hourly
173,1,WESTDATACENTER_EQUIP,ITE Standard Density Air Volume Flow Rate [m3/s] !Hourly
174,1,WESTDATACENTER_EQUIP,ITE Air Inlet Dry-Bulb Temperature [C] !Hourly
175,1,WESTDATACENTER_EQUIP,ITE Air Inlet Dewpoint Temperature [C] !Hourly
176,1,WESTDATACENTER_EQUIP,ITE Air Inlet Relative Humidity [%] !Hourly
177,1,WESTDATACENTER_EQUIP,ITE Air Outlet Dry-Bulb Temperature [C] !Hourly
178,1,WESTDATACENTER_EQUIP,ITE Supply Heat Index [] !Hourly
179,1,WESTDATACENTER_EQUIP,ITE Air Inlet Operating Range Exceeded Time [hr] !Hourly
180,1,WESTDATACENTER_EQUIP,ITE Air Inlet Dry-Bulb Temperature Above Operating Range Time [hr] !Hourly
181,1,WESTDATACENTER_EQUIP,ITE Air Inlet Dry-Bulb Temperature Below Operating Range Time [hr] !Hourly
182,1,WESTDATACENTER_EQUIP,ITE Air Inlet Dewpoint Temperature Above Operating Range Time [hr] !Hourly
183,1,WESTDATACENTER_EQUIP,ITE Air Inlet Dewpoint Temperature Below Operating Range Time [hr] !Hourly
184,1,WESTDATACENTER_EQUIP,ITE Air Inlet Relative Humidity Above Operating Range Time [hr] !Hourly
185,1,WESTDATACENTER_EQUIP,ITE Air Inlet Relative Humidity Below Operating Range Time [hr] !Hourly
186,1,WESTDATACENTER_EQUIP,ITE Air Inlet Dry-Bulb Temperature Difference Above Operating Range [deltaC] !Hourly
187,1,WESTDATACENTER_EQUIP,ITE Air Inlet Dry-Bulb Temperature Difference Below Operating Range [deltaC] !Hourly
188,1,WESTDATACENTER_EQUIP,ITE Air Inlet Dewpoint Temperature Difference Above Operating Range [deltaC] !Hourly
189,1,WESTDATACENTER_EQUIP,ITE Air Inlet Dewpoint Temperature Difference Below Operating Range [deltaC] !Hourly
190,1,WESTDATACENTER_EQUIP,ITE Air Inlet Relative Humidity Difference Above Operating Range [%] !Hourly
191,1,WESTDATACENTER_EQUIP,ITE Air Inlet Relative Humidity Difference Below Operating Range [%] !Hourly
192,1,WEST ZONE,Zone ITE CPU Electric Power [W] !Hourly
193,1,WEST ZONE,Zone ITE Fan Electric Power [W] !Hourly
194,1,WEST ZONE,Zone ITE UPS Electric Power [W] !Hourly
195,1,WEST ZONE,Zone ITE CPU Electric Power at Design Inlet Conditions [W] !Hourly
196,1,WEST ZONE,Zone ITE Fan Electric Power at Design Inlet Conditions [W] !Hourly
197,1,WEST ZONE,Zone ITE UPS Heat Gain to Zone Rate [W] !Hourly
198,1,WEST ZONE,Zone ITE Total Heat Gain to Zone Rate [W] !Hourly
199,1,EASTDATACENTER_EQUIP,ITE CPU Electric Power [W] !Hourly
200,1,EASTDATACENTER_EQUIP,ITE Fan Electric Power [W] !Hourly
201,1,EASTDATACENTER_EQUIP,ITE UPS Electric Power [W] !Hourly
202,1,EASTDATACENTER_EQUIP,ITE CPU Electric Power at Design Inlet Conditions [W] !Hourly
203,1,EASTDATACENTER_EQUIP,ITE Fan Electric Power at Design Inlet Conditions [W] !Hourly
204,1,EASTDATACENTER_EQUIP,ITE UPS Heat Gain to Zone Rate [W] !Hourly
205,1,EASTDATACENTER_EQUIP,ITE Total Heat Gain to Zone Rate [W] !Hourly
209,1,EASTDATACENTER_EQUIP,ITE Standard Density Air Volume Flow Rate [m3/s] !Hourly
210,1,EASTDATACENTER_EQUIP,ITE Air Inlet Dry-Bulb Temperature [C] !Hourly
211,1,EASTDATACENTER_EQUIP,ITE Air Inlet Dewpoint Temperature [C] !Hourly
212,1,EASTDATACENTER_EQUIP,ITE Air Inlet Relative Humidity [%] !Hourly
213,1,EASTDATACENTER_EQUIP,ITE Air Outlet Dry-Bulb Temperature [C] !Hourly
214,1,EASTDATACENTER_EQUIP,ITE Supply Heat Index [] !Hourly
215,1,EASTDATACENTER_EQUIP,ITE Air Inlet Operating Range Exceeded Time [hr] !Hourly
216,1,EASTDATACENTER_EQUIP,ITE Air Inlet Dry-Bulb Temperature Above Operating Range Time [hr] !Hourly
217,1,EASTDATACENTER_EQUIP,ITE Air Inlet Dry-Bulb Temperature Below Operating Range Time [hr] !Hourly
218,1,EASTDATACENTER_EQUIP,ITE Air Inlet Dewpoint Temperature Above Operating Range Time [hr] !Hourly
219,1,EASTDATACENTER_EQUIP,ITE Air Inlet Dewpoint Temperature Below Operating Range Time [hr] !Hourly
220,1,EASTDATACENTER_EQUIP,ITE Air Inlet Relative Humidity Above Operating Range Time [hr] !Hourly
221,1,EASTDATACENTER_EQUIP,ITE Air Inlet Relative Humidity Below Operating Range Time [hr] !Hourly
222,1,EASTDATACENTER_EQUIP,ITE Air Inlet Dry-Bulb Temperature Difference Above Operating Range [deltaC] !Hourly
223,1,EASTDATACENTER_EQUIP,ITE Air Inlet Dry-Bulb Temperature Difference Below Operating Range [deltaC] !Hourly
224,1,EASTDATACENTER_EQUIP,ITE Air Inlet Dewpoint Temperature Difference Above Operating Range [deltaC] !Hourly
225,1,EASTDATACENTER_EQUIP,ITE Air Inlet Dewpoint Temperature Difference Below Operating Range [deltaC] !Hourly
226,1,EASTDATACENTER_EQUIP,ITE Air Inlet Relative Humidity Difference Above Operating Range [%] !Hourly
227,1,EASTDATACENTER_EQUIP,ITE Air Inlet Relative Humidity Difference Below Operating Range [%] !Hourly
228,1,EAST ZONE,Zone ITE CPU Electric Power [W] !Hourly
229,1,EAST ZONE,Zone ITE Fan Electric Power [W] !Hourly
230,1,EAST ZONE,Zone ITE UPS Electric Power [W] !Hourly
231,1,EAST ZONE,Zone ITE CPU Electric Power at Design Inlet Conditions [W] !Hourly
232,1,EAST ZONE,Zone ITE Fan Electric Power at Design Inlet Conditions [W] !Hourly
233,1,EAST ZONE,Zone ITE UPS Heat Gain to Zone Rate [W] !Hourly
234,1,EAST ZONE,Zone ITE Total Heat Gain to Zone Rate [W] !Hourly
239,1,EMS,Power Utilization Effectiveness [] !TimeStep
312,1,WEST ZONE,Zone Air Temperature [C] !TimeStep
313,1,WEST ZONE,Zone Air Relative Humidity [%] !TimeStep
314,1,WEST ZONE,Zone Thermostat Control Type [] !Hourly
315,1,WEST ZONE,Zone Thermostat Heating Setpoint Temperature [C] !Hourly
316,1,WEST ZONE,Zone Thermostat Cooling Setpoint Temperature [C] !Hourly
349,1,EAST ZONE,Zone Air Temperature [C] !TimeStep
350,1,EAST ZONE,Zone Air Relative Humidity [%] !TimeStep
351,1,EAST ZONE,Zone Thermostat Control Type [] !Hourly
352,1,EAST ZONE,Zone Thermostat Heating Setpoint Temperature [C] !Hourly
353,1,EAST ZONE,Zone Thermostat Cooling Setpoint Temperature [C] !Hourly
386,1,WEST PLENUM,Zone Thermostat Control Type [] !Hourly
387,1,WEST PLENUM,Zone Thermostat Heating Setpoint Temperature [C] !Hourly
388,1,WEST PLENUM,Zone Thermostat Cooling Setpoint Temperature [C] !Hourly
421,1,EAST PLENUM,Zone Thermostat Control Type [] !Hourly
422,1,EAST PLENUM,Zone Thermostat Heating Setpoint Temperature [C] !Hourly
423,1,EAST PLENUM,Zone Thermostat Cooling Setpoint Temperature [C] !Hourly
517,1,Whole Building,Facility Total Building Electric Demand Power [W] !Hourly
518,1,Whole Building,Facility Total HVAC Electric Demand Power [W] !Hourly
519,1,Whole Building,Facility Total Electric Demand Power [W] !Hourly
520,1,WEST ZONE,Zone Oscillating Temperatures Time [hr] !Hourly
521,1,EAST ZONE,Zone Oscillating Temperatures Time [hr] !Hourly
522,1,WEST PLENUM,Zone Oscillating Temperatures Time [hr] !Hourly
523,1,EAST PLENUM,Zone Oscillating Temperatures Time [hr] !Hourly
524,1,Facility,Facility Any Zone Oscillating Temperatures Time [hr] !Hourly
525,1,WEST ZONE,Zone Heating Setpoint Not Met Time [hr] !Hourly
526,1,WEST ZONE,Zone Heating Setpoint Not Met While Occupied Time [hr] !Hourly
527,1,WEST ZONE,Zone Cooling Setpoint Not Met Time [hr] !Hourly
528,1,WEST ZONE,Zone Cooling Setpoint Not Met While Occupied Time [hr] !Hourly
529,1,EAST ZONE,Zone Heating Setpoint Not Met Time [hr] !Hourly
530,1,EAST ZONE,Zone Heating Setpoint Not Met While Occupied Time [hr] !Hourly
531,1,EAST ZONE,Zone Cooling Setpoint Not Met Time [hr] !Hourly
532,1,EAST ZONE,Zone Cooling Setpoint Not Met While Occupied Time [hr] !Hourly
533,1,WEST PLENUM,Zone Heating Setpoint Not Met Time [hr] !Hourly
534,1,WEST PLENUM,Zone Heating Setpoint Not Met While Occupied Time [hr] !Hourly
535,1,WEST PLENUM,Zone Cooling Setpoint Not Met Time [hr] !Hourly
536,1,WEST PLENUM,Zone Cooling Setpoint Not Met While Occupied Time [hr] !Hourly
537,1,EAST PLENUM,Zone Heating Setpoint Not Met Time [hr] !Hourly
538,1,EAST PLENUM,Zone Heating Setpoint Not Met While Occupied Time [hr] !Hourly
539,1,EAST PLENUM,Zone Cooling Setpoint Not Met Time [hr] !Hourly
540,1,EAST PLENUM,Zone Cooling Setpoint Not Met While Occupied Time [hr] !Hourly
541,1,WEST ZONE VAV SYSTEM,Zone Air Terminal VAV Damper Position [] !Hourly
542,1,WEST ZONE VAV SYSTEM,Zone Air Terminal Minimum Air Flow Fraction [] !Hourly
543,1,WEST ZONE VAV SYSTEM,Zone Air Terminal Outdoor Air Volume Flow Rate [m3/s] !Hourly
544,1,EAST ZONE VAV SYSTEM,Zone Air Terminal VAV Damper Position [] !Hourly
545,1,EAST ZONE VAV SYSTEM,Zone Air Terminal Minimum Air Flow Fraction [] !Hourly
546,1,EAST ZONE VAV SYSTEM,Zone Air Terminal Outdoor Air Volume Flow Rate [m3/s] !Hourly
599,1,WEST ZONE CW COOLING COIL,Cooling Coil Total Cooling Rate [W] !TimeStep
600,1,WEST ZONE CW COOLING COIL,Cooling Coil Sensible Cooling Rate [W] !TimeStep
603,1,EAST ZONE CW COOLING COIL,Cooling Coil Total Cooling Rate [W] !TimeStep
604,1,EAST ZONE CW COOLING COIL,Cooling Coil Sensible Cooling Rate [W] !TimeStep
605,1,WEST ZONE SUPPLY FAN,Fan Electric Power [W] !Hourly
606,1,WEST ZONE SUPPLY FAN,Fan Rise in Air Temperature [deltaC] !Hourly
607,1,WEST ZONE SUPPLY FAN,Fan Heat Gain to Air [W] !Hourly
608,1,WEST ZONE SUPPLY FAN,Fan Electric Energy [J] !Hourly
639,1,WEST ZONE SUPPLY FAN,Fan Air Mass Flow Rate [kg/s] !Hourly
640,1,EAST ZONE SUPPLY FAN,Fan Electric Power [W] !Hourly
641,1,EAST ZONE SUPPLY FAN,Fan Rise in Air Temperature [deltaC] !Hourly
642,1,EAST ZONE SUPPLY FAN,Fan Heat Gain to Air [W] !Hourly
643,1,EAST ZONE SUPPLY FAN,Fan Electric Energy [J] !Hourly
644,1,EAST ZONE SUPPLY FAN,Fan Air Mass Flow Rate [kg/s] !Hourly
645,1,WEST DATA CENTER IEC,Evaporative Cooler Total Stage Effectiveness [] !TimeStep
646,1,WEST DATA CENTER IEC,Evaporative Cooler Operating Mode Status [] !TimeStep
647,1,EAST DATA CENTER IEC,Evaporative Cooler Total Stage Effectiveness [] !TimeStep
648,1,EAST DATA CENTER IEC,Evaporative Cooler Operating Mode Status [] !TimeStep
649,1,WEST DATA CENTER DEC,Evaporative Cooler Stage Effectiveness [] !TimeStep
650,1,EAST DATA CENTER DEC,Evaporative Cooler Stage Effectiveness [] !TimeStep
662,1,WEST DATA CENTER IEC,Evaporative Cooler Electric Power [W] !TimeStep
663,1,WEST DATA CENTER IEC,Evaporative Cooler Water Volume [m3] !TimeStep
726,1,EAST DATA CENTER IEC,Evaporative Cooler Electric Power [W] !TimeStep
727,1,EAST DATA CENTER IEC,Evaporative Cooler Water Volume [m3] !TimeStep
730,1,WEST DATA CENTER DEC,Evaporative Cooler Electric Power [W] !TimeStep
731,1,WEST DATA CENTER DEC,Evaporative Cooler Water Volume [m3] !TimeStep
734,1,EAST DATA CENTER DEC,Evaporative Cooler Electric Power [W] !TimeStep
735,1,EAST DATA CENTER DEC,Evaporative Cooler Water Volume [m3] !TimeStep
737,1,WEST DX COOLING COIL,Cooling Coil Total Cooling Rate [W] !TimeStep
739,1,WEST DX COOLING COIL,Cooling Coil Sensible Cooling Rate [W] !TimeStep
741,1,EAST DX COOLING COIL,Cooling Coil Total Cooling Rate [W] !TimeStep
743,1,EAST DX COOLING COIL,Cooling Coil Sensible Cooling Rate [W] !TimeStep
766,1,CHILLER,Chiller Evaporator Cooling Rate [W] !Hourly
788,1,CHILLER,Chiller Evaporator Inlet Temperature [C] !Hourly
789,1,CHILLER,Chiller Evaporator Outlet Temperature [C] !Hourly
790,1,CHILLER,Chiller Condenser Heat Transfer Rate [W] !Hourly
802,1,CHILLER,Chiller Condenser Inlet Temperature [C] !Hourly
803,1,CHILLER,Chiller Condenser Outlet Temperature [C] !Hourly
892,1,WEST ZONE INLET NODE,System Node Temperature [C] !TimeStep
893,1,WEST ZONE INLET NODE,System Node Mass Flow Rate [kg/s] !TimeStep
894,1,WEST OUTSIDE AIR INLET NODE,System Node Temperature [C] !TimeStep
895,1,WEST OUTSIDE AIR INLET NODE,System Node Mass Flow Rate [kg/s] !TimeStep
896,1,WEST IEC SECONDARY AIR INLET NODE,System Node Temperature [C] !TimeStep
897,1,WEST IEC SECONDARY AIR INLET NODE,System Node Mass Flow Rate [kg/s] !TimeStep
898,1,WEST ZONE DEC OUTLET NODE,System Node Temperature [C] !TimeStep
899,1,WEST ZONE DEC OUTLET NODE,System Node Setpoint Temperature [C] !TimeStep
900,1,WEST ZONE IEC OUTLET NODE,System Node Temperature [C] !TimeStep
901,1,WEST ZONE IEC OUTLET NODE,System Node Setpoint Temperature [C] !TimeStep
902,1,WEST ZONE CCOIL AIR OUTLET NODE,System Node Temperature [C] !TimeStep
903,1,WEST ZONE CCOIL AIR OUTLET NODE,System Node Setpoint Temperature [C] !TimeStep
904,1,WEST AIR LOOP OUTLET NODE,System Node Temperature [C] !TimeStep
905,1,WEST AIR LOOP OUTLET NODE,System Node Setpoint Temperature [C] !TimeStep
906,1,EAST ZONE INLET NODE,System Node Temperature [C] !TimeStep
907,1,EAST ZONE INLET NODE,System Node Mass Flow Rate [kg/s] !TimeStep
908,1,EAST OUTSIDE AIR INLET NODE,System Node Temperature [C] !TimeStep
909,1,EAST OUTSIDE AIR INLET NODE,System Node Mass Flow Rate [kg/s] !TimeStep
910,1,EAST IEC SECONDARY AIR INLET NODE,System Node Temperature [C] !TimeStep
911,1,EAST IEC SECONDARY AIR INLET NODE,System Node Mass Flow Rate [kg/s] !TimeStep
912,1,EAST ZONE DEC OUTLET NODE,System Node Temperature [C] !TimeStep
913,1,EAST ZONE DEC OUTLET NODE,System Node Setpoint Temperature [C] !TimeStep
914,1,EAST ZONE IEC OUTLET NODE,System Node Temperature [C] !TimeStep
915,1,EAST ZONE IEC OUTLET NODE,System Node Setpoint Temperature [C] !TimeStep
916,1,EAST ZONE CCOIL AIR OUTLET NODE,System Node Temperature [C] !TimeStep
917,1,EAST ZONE CCOIL AIR OUTLET NODE,System Node Setpoint Temperature [C] !TimeStep
918,1,EAST AIR LOOP OUTLET NODE,System Node Temperature [C] !TimeStep
919,1,EAST AIR LOOP OUTLET NODE,System Node Setpoint Temperature [C] !TimeStep
920,1,WEST ZONE RETURN AIR NODE,System Node Temperature [C] !TimeStep
921,1,WEST ZONE RETURN AIR NODE,System Node Mass Flow Rate [kg/s] !TimeStep
922,1,WEST ZONE MIXED AIR NODE,System Node Temperature [C] !TimeStep
923,1,WEST ZONE MIXED AIR NODE,System Node Mass Flow Rate [kg/s] !TimeStep
924,1,WEST ZONE SUPPLY FAN OUTLET NODE,System Node Temperature [C] !TimeStep
925,1,EAST ZONE SUPPLY FAN OUTLET NODE,System Node Temperature [C] !TimeStep
926,1,WEST IEC SECONDARY AIR OUTLET NODE,System Node Temperature [C] !TimeStep
927,1,WEST IEC SECONDARY AIR OUTLET NODE,System Node Mass Flow Rate [kg/s] !TimeStep
End of Data Dictionary
1,WHOLEYEARDAY,  37.62,-122.40,  -8.00,   2.00
2,1, 1, 1, 0, 1, 0.00,15.00,Tuesday
6,6.825
239,1.030029886631446
312,21.89875509737955
313,33.556249002918409
349,23.991588541898257
350,27.088049508977318
599,0.0
600,0.0
603,0.0
604,0.0
645,0.13370119263068437
647,0.0
649,0.4083333333333333
650,0.7000000000000001
662,24.770653549107548
663,0.0
726,0.0
727,0.0
730,7.5
731,0.003076300367975162
734,0.045485904582588648
735,0.00004478285450819624
737,0.0
739,0.0
741,0.0
743,0.0
892,15.362926762073908
893,3.2955558333333339
894,6.824999999999998
895,1.0794644770314315
896,6.824999999999998
897,0.6568802136930483
898,15.852687483147609
899,20.41224941666666
900,14.778980437857636
901,20.41224941666666
902,14.778980437857636
903,20.41224941666666
904,14.778980437857636
905,20.41224941666666
906,21.638473702721908
907,5.277816633739672
908,6.824999999999998
909,0.013629072599738779
910,6.824999999999998
911,0.0
912,23.96350139662186
913,37.3724645
914,23.96350139662186
915,37.3724645
916,23.96350139662186
917,37.3724645
918,23.96350139662186
919,37.3724645
920,22.020248410371015
921,3.2955558333333339
922,17.102259145406128
923,3.2955558333333339
924,17.441566046920486
925,23.97518137206998
926,8.709685790535286
927,0.6568802136930483
646,0.3333333333333333
648,0.0
2,1, 1, 1, 0, 1,15.00,30.00,Tuesday
6,6.95
239,1.070180546415445
312,19.806055944412248
313,42.527516933906628
349,34.245033622187019
350,15.600005473388539
599,0.0
600,0.0
603,0.0
604,0.0
645,0.16474038961955424
647,0.0
649,0.32666666666666668
650,0.6999999999999997
662,41.46574796767072
663,0.0
726,0.0
727,0.0
730,6.699828400813827
731,0.0034304057207890875
734,0.8287595825808186
735,0.0014992203793073199
737,0.0
739,0.0
741,0.0
743,0.0
892,14.009633575647247
893,3.6312099790111795
894,6.9499999999999979
895,1.076610052756505
896,6.9499999999999979
897,1.0544782143297545
898,14.618854748221916
899,20.804875866666668
900,13.475498404748965
901,20.804875866666668
902,13.475498404748965
903,20.804875866666668
904,13.475498404748965
905,20.804875866666668
906,29.52080784620972
907,5.969036347316811
908,6.9499999999999979
909,0.08949305811855149
910,6.9499999999999979
911,0.0
912,32.71352032762541
913,39.45811866666667
914,32.71352032762541
915,39.45811866666667
916,32.71352032762541
917,39.45811866666667
918,32.71352032762541
919,39.45811866666667
920,19.872654051818949
921,3.6312099790111795
922,15.400842145316357
923,3.6312099790111795
924,15.768130363858122
925,33.10331807980069
926,8.954399889256994
927,1.0544782143297545
646,0.3333333333333333
648,0.0
2,1, 1, 1, 0, 1,30.00,45.00,Tuesday
6,7.075
239,1.0287316738664894
312,25.38577264841024
313,32.94177299793303
349,45.30312057923629
350,9.699218152698535
599,0.0
600,0.0
603,30.597301895059585
604,30.597301895059585
645,0.21075446327931394
647,0.0
649,0.41999999999999995
650,0.6999999999999997
662,112.04582843698724
663,0.0
726,0.0
727,0.0
730,10.451350868186627
731,0.003988914814948732
734,1.9997452927739799
735,0.0033342379864027408
737,2042.2486520320792
739,93.04186366420159
741,0.0
743,0.0
892,14.793762285112172
893,3.21761937901118
894,7.075
895,1.2535944735233158
896,7.075
897,1.1799219842586242
898,15.804672355199426
899,21.29605786666667
900,13.703118138417033
901,21.29605786666667
902,13.68848132772542
903,21.29605786666667
904,13.68848132772542
905,21.29605786666667
906,33.988035259466837
907,5.6187447069917388
908,7.075
909,0.8367714904497929
910,7.075
911,0.0
912,37.716975039267797
913,39.0443324
914,37.716975039267797
915,39.0443324
916,37.716975039267797
917,39.0443324
918,37.71252040263548
919,39.0443324
920,24.88154956602719
921,3.21761937901118
922,17.657941216175865
923,3.21761937901118
924,18.026888626089435
925,38.67878743332393
926,9.391051202602885
927,1.1799219842586242
646,0.3333333333333333
648,0.0
2,1, 1, 1, 0, 1,45.00,60.00,Tuesday
6,7.2
239,1.0236849780747435
312,24.587879176316766
313,37.53437754813609
349,49.84211983778939
350,8.375877801183501
599,0.0
600,0.0
603,34.16116989854962
604,34.16116989855089
645,0.11803316109806547
647,0.011979888926565721
649,0.5133333333333332
650,0.6066666666666665
662,103.61420242670865
663,0.0
726,0.0
727,0.0
730,8.828797618118167
731,0.0029420568033636078
734,2.7459584139976629
735,0.0027854452328197668
737,656.6442486546617
739,18.996384132034899
741,0.0
743,0.0
892,17.584704037259518
893,3.256798666666666
894,7.200000000000003
895,1.076655519055447
896,7.200000000000003
897,0.9348356806261635
898,18.752767843403974
899,23.592766333333338
900,17.616833739065315
901,23.592766333333338
902,17.60618119778804
903,23.592766333333338
904,17.60618119778804
905,23.592766333333338
906,34.011294880736517
907,5.125913906991738
908,7.200000000000003
909,1.4741177214046278
910,7.200000000000003
911,0.02010719096790604
912,36.71629400831961
913,37.95407973333333
914,36.444968475871458
915,37.95407973333333
916,36.444968475871458
917,37.95407973333333
918,36.44013231925781
919,37.95407973333333
920,24.810864086294538
921,3.256798666666666
922,20.139805237471724
923,3.256798666666666
924,20.50335442152098
925,37.95608218833071
926,8.309319892917028
927,0.9348356806261635
646,0.2
648,0.06666666666666667
2,1, 1, 1, 0, 1, 0.00,60.00,Tuesday
133,13899.297039021452
134,10181.783770952912
135,2408.108080997436
136,13936.849545599995
137,10219.334400000002
138,2408.108080997436
139,26489.1888909718
173,3.703415279684599
174,14.9797904196423
175,7.08863874118675
176,0.6037020613746695
177,22.826079313398006
178,0.10027535851184109
179,1.0
180,0.0
181,0.0
182,0.0
183,0.0
184,0.0
185,1.0
186,0.0
187,0.0
188,0.0
189,0.0
190,0.0
191,-19.39629793862533
192,13899.297039021452
193,10181.783770952912
194,2408.108080997436
195,13936.849545599995
196,10219.334400000002
197,2408.108080997436
198,26489.1888909718
199,40314.878704608396
200,36166.8058603154
201,7648.168456492378
202,15546.354479999996
203,11399.520000000002
204,7648.168456492378
205,84129.85302141618
209,12.497989148229859
210,26.94963228554664
211,4.981723657691669
212,0.28036775333058736
213,34.38589556172863
214,0.09578173643732671
215,1.0
216,0.25
217,0.0
218,0.0
219,0.0
220,0.0
221,1.0
222,0.2173969482230902
223,0.0
224,0.0
225,0.0
226,0.0
227,-19.719632246669414
228,40314.878704608396
229,36166.8058603154
230,7648.168456492378
231,15546.354479999996
232,11399.520000000002
233,7648.168456492378
234,84129.85302141618
315,20.0
316,23.0
352,20.0
353,23.0
387,0.0
388,0.0
422,0.0
423,0.0
525,0.0
526,0.0
527,0.5
528,0.0
529,0.0
530,0.0
531,1.0
532,0.0
533,0.0
534,0.0
535,0.0
536,0.0
537,0.0
538,0.0
539,0.0
540,0.0
314,4.0
351,4.0
386,0.0
421,0.0
517,110647.44191238797
518,3807.2049355406593
519,114454.64684792861
520,0.0
521,0.03333333333333333
522,0.06666666666666667
523,0.08333333333333333
524,0.15
541,0.5370698198881589
542,0.4
543,0.9315278476609036
544,0.7866454273301391
545,0.4
546,0.5012385481622458
605,1235.6436083651333
606,0.3597729285047397
607,1112.0792475286203
608,4448316.99011448
639,3.3502959645055898
640,1856.828324089822
641,0.3083881654175131
642,1671.1454916808398
643,6684581.966723359
644,5.49787789875999
766,1.5711828900367793
788,10.206702645765036
789,9.93939334394073
790,1.7987171372191405
802,9.934323043602572
803,9.934339432343944
2,1, 1, 1, 0, 2, 0.00,15.00,Tuesday
6,7.2
239,1.0297192899365524
312,22.07057103329261
313,43.26242579907408
349,49.66132001668961
350,8.648769504775065
599,0.0
600,0.0
603,16.304840961980547
604,16.304840961974308
645,0.21994288378269206
647,0.0015081336651916562
649,0.32666666666666668
650,0.5599999999999998
662,101.93072555651377
663,0.0
726,0.0
727,0.0
730,10.821551113159448
731,0.0023848690082633259
734,1.3018880081299407
735,0.0017317768281151173
737,0.0
739,0.0
741,0.0
743,0.0
892,14.31485913182845
893,2.9808566228389239
894,7.200000000000003
895,1.4835890685394997
896,7.200000000000003
897,1.0744561456247806
898,14.068806983626832
899,17.028878600000004
900,12.187990412114996
901,17.028878600000004
902,12.187990412114996
903,17.028878600000004
904,12.187990412114996
905,17.028878600000004
906,35.0103193370866
907,5.218611409322318
908,7.200000000000003
909,1.352132360338599
910,7.200000000000003
911,0.0007965295775431709
912,38.17404675268454
913,39.400013200000007
914,38.15913062346653
915,39.400013200000007
916,38.15913062346653
917,39.400013200000007
918,38.15683534593629
919,39.400013200000007
920,22.18421600598053
921,2.9808566228389239
922,15.519704441845646
923,2.9808566228389239
924,15.901234551636918
925,38.78637589711823
926,9.26767446617266
927,1.0744561456247806
646,0.39999999999999999
648,0.06666666666666667
2,1, 1, 1, 0, 2,15.00,30.00,Tuesday
6,7.2
239,1.0184093855244106
312,23.10629442889764
313,41.83771627712443
349,48.91387949899159
350,9.38047019399354
599,0.0
600,0.0
603,21.25549018760025
604,21.255490187599937
645,0.2332630087830495
647,0.017487959718656598
649,0.38181818181818169
650,0.31818181818181809
662,133.69713722489898
663,0.0
726,0.44643227858632769
727,0.0
730,13.314940288198013
731,0.004196017705993935
734,1.508563576281126
735,0.002592699418212787
737,2902.602134347001
739,101.40785931337557
741,0.0
743,0.0
892,13.702368255987724
893,3.126510545454545
894,7.199999999999998
895,1.189412654569868
896,7.199999999999998
897,1.1886587840097367
898,14.320751466049125
899,18.93388454545454
900,12.353305767845696
901,18.93388454545454
902,12.33614275711803
903,18.93388454545454
904,12.33614275711803
905,18.93388454545454
906,35.39111676104789
907,5.8378237399849779
908,7.199999999999998
909,1.455483129127536
910,7.199999999999998
911,0.10098568836607158
912,38.122476658348407
913,38.82851445454545
914,37.64564595664651
915,38.82851445454545
916,37.64564595664651
917,38.82851445454545
918,37.642656913322408
919,38.82851445454545
920,22.897057882340595