Program Version,EnergyPlus, Version 8.8.0-Unknown, YMD=2019.07.12 13:22
1,5,Environment Title[],Latitude[deg],Longitude[deg],Time Zone[],Elevation[m]
2,6,Day of Simulation[],Month[],Day of Month[],DST Indicator[1=yes 0=no],Hour[],StartMinute[],EndMinute[],DayType
3,3,Cumulative Day of Simulation[],Month[],Day of Month[],DST Indicator[1=yes 0=no],DayType  ! When Daily Report Variables Requested
4,2,Cumulative Days of Simulation[],Month[]  ! When Monthly Report Variables Requested
5,1,Cumulative Days of Simulation[] ! When Run Period Report Variables Requested
6,1,Environment,Site Outdoor Air Drybulb Temperature [C] !TimeStep
133,1,WESTDATACENTER_EQUIP,ITE CPU Electric Power [W] !Hourly
134,1,WESTDATACENTER_EQUIP,ITE Fan Electric Power [W] !Hourly
135,1,WESTDATACENTER_EQUIP,ITE UPS Electric Power [W] !Hourly
136,1,WESTDATACENTER_EQUIP,ITE CPU Electric Power at Design Inlet Conditions [W] !Hourly
137,1,WESTDATACENTER_EQUIP,ITE Fan Electric Power at Design Inlet Conditions [W] !Hourly
138,1,WESTDATACENTER_EQUIP,ITE UPS Heat Gain to Zone Rate [W] !Hourly
139,1,WESTDATACENTER_EQUIP,ITE Total Heat Gain to Zone Rate [W] !Hourly
173,1,WESTDATACENTER_EQUIP,ITE Standard Density Air Volume Flow Rate [m3/s] !Hourly
174,1,WESTDATACENTER_EQUIP,ITE Air Inlet Dry-Bulb Temperature [C] !Hourly
175,1,WESTDATACENTER_EQUIP,ITE Air Inlet Dewpoint Temperature [C] !Hourly
176,1,WESTDATACENTER_EQUIP,ITE Air Inlet Relative Humidity [%] !Hourly
177,1,WESTDATACENTER_EQUIP,ITE Air Outlet Dry-Bulb Temperature [C] !Hourly
178,1,WESTDATACENTER_EQUIP,ITE Supply Heat Index [] !Hourly
179,1,WESTDATACENTER_EQUIP,ITE Air Inlet Operating Range Exceeded Time [hr] !Hourly
180,1,WESTDATACENTER_EQUIP,ITE Air Inlet Dry-Bulb Temperature Above Operating Range Time [hr] !Hourly
181,1,WESTDATACENTER_EQUIP,ITE Air Inlet Dry-Bulb Temperature Below Operating Range Time [hr] !Hourly
182,1,WESTDATACENTER_EQUIP,ITE Air Inlet Dewpoint Temperature Above Operating Range Time [hr] !Hourly
183,1,WESTDATACENTER_EQUIP,ITE Air Inlet Dewpoint Temperature Below Operating Range Time [hr] !Hourly
184,1,WESTDATACENTER_EQUIP,ITE Air Inlet Relative Humidity Above Operating Range Time [hr] !Hourly
185,1,WESTDATACENTER_EQUIP,ITE Air Inlet Relative Humidity Below Operating Range Time [hr] !Hourly
186,1,WESTDATACENTER_EQUIP,ITE Air Inlet Dry-Bulb Temperature Difference Above Operating Range [deltaC] !Hourly
187,1,WESTDATACENTER_EQUIP,ITE Air Inlet Dry-Bulb Temperature Difference Below Operating Range [deltaC] !Hourly
188,1,WESTDATACENTER_EQUIP,ITE Air Inlet Dewpoint Temperature Difference Above Operating Range [deltaC] !Hourly
189,1,WESTDATACENTER_EQUIP,ITE Air Inlet Dewpoint Temperature Difference Below Operating Range [deltaC] !Hourly
190,1,WESTDATACENTER_EQUIP,ITE Air Inlet Relative Humidity Difference Above Operating Range [%] !Hourly
191,1,WESTDATACENTER_EQUIP,ITE Air Inlet Relative Humidity Difference Below Operating Range [%] !Hourly
192,1,WEST ZONE,Zone ITE CPU Electric Power [W] !Hourly
193,1,WEST ZONE,Zone ITE Fan Electric Power [W] !Hourly
194,1,WEST ZONE,Zone ITE UPS Electric Power [W] !Hourly
195,1,WEST ZONE,Zone ITE CPU Electric Power at Design Inlet Conditions [W] !Hourly
196,1,WEST ZONE,Zone ITE Fan Electric Power at Design Inlet Conditions [W] !Hourly
197,1,WEST ZONE,Zone ITE UPS Heat Gain to Zone Rate [W] !Hourly
198,1,WEST ZONE,Zone ITE Total Heat Gain to Zone Rate [W] !Hourly
199,1,EASTDATACENTER_EQUIP,ITE CPU Electric Power [W] !Hourly
200,1,EASTDATACENTER_EQUIP,ITE Fan Electric Power [W] !Hourly
201,1,EASTDATACENTER_EQUIP,ITE UPS Electric Power [W] !Hourly
202,1,EASTDATACENTER_EQUIP,ITE CPU Electric Power at Design Inlet Conditions [W] !Hourly
203,1,EASTDATACENTER_EQUIP,ITE Fan Electric Power at Design Inlet Conditions [W] !Hourly
204,1,EASTDATACENTER_EQUIP,ITE UPS Heat Gain to Zone Rate [W] !Hourly
205,1,EASTDATACENTER_EQUIP,ITE Total Heat Gain to Zone Rate [W] !Hourly
209,1,EASTDATACENTER_EQUIP,ITE Standard Density Air Volume Flow Rate [m3/s] !Hourly
210,1,EASTDATACENTER_EQUIP,ITE Air Inlet Dry-Bulb Temperature [C] !Hourly
211,1,EASTDATACENTER_EQUIP,ITE Air Inlet Dewpoint Temperature [C] !Hourly
212,1,EASTDATACENTER_EQUIP,ITE Air Inlet Relative Humidity [%] !Hourly
213,1,EASTDATACENTER_EQUIP,ITE Air Outlet Dry-Bulb Temperature [C] !Hourly
214,1,EASTDATACENTER_EQUIP,ITE Supply Heat Index [] !Hourly
215,1,EASTDATACENTER_EQUIP,ITE Air Inlet Operating Range Exceeded Time [hr] !Hourly
216,1,EASTDATACENTER_EQUIP,ITE Air Inlet Dry-Bulb Temperature Above Operating Range Time [hr] !Hourly
217,1,EASTDATACENTER_EQUIP,ITE Air Inlet Dry-Bulb Temperature Below Operating Range Time [hr] !Hourly
218,1,EASTDATACENTER_EQUIP,ITE Air Inlet Dewpoint Temperature Above Operating Range Time [hr] !Hourly
219,1,EASTDATACENTER_EQUIP,ITE Air Inlet Dewpoint Temperature Below Operating Range Time [hr] !Hourly
220,1,EASTDATACENTER_EQUIP,ITE Air Inlet Relative Humidity Above Operating Range Time [hr] !Hourly
221,1,EASTDATACENTER_EQUIP,ITE Air Inlet Relative Humidity Below Operating Range Time [hr] !Hourly
222,1,EASTDATACENTER_EQUIP,ITE Air Inlet Dry-Bulb Temperature Difference Above Operating Range [deltaC] !Hourly
223,1,EASTDATACENTER_EQUIP,ITE Air Inlet Dry-Bulb Temperature Difference Below Operating Range [deltaC] !Hourly
224,1,EASTDATACENTER_EQUIP,ITE Air Inlet Dewpoint Temperature Difference Above Operating Range [deltaC] !Hourly
225,1,EASTDATACENTER_EQUIP,ITE Air Inlet Dewpoint Temperature Difference Below Operating Range [deltaC] !Hourly
226,1,EASTDATACENTER_EQUIP,ITE Air Inlet Relative Humidity Difference Above Operating Range [%] !Hourly
227,1,EASTDATACENTER_EQUIP,ITE Air Inlet Relative Humidity Difference Below Operating Range [%] !Hourly
228,1,EAST ZONE,Zone ITE CPU Electric Power [W] !Hourly
229,1,EAST ZONE,Zone ITE Fan Electric Power [W] !Hourly
230,1,EAST ZONE,Zone ITE UPS Electric Power [W] !Hourly
231,1,EAST ZONE,Zone ITE CPU Electric Power at Design Inlet Conditions [W] !Hourly
232,1,EAST ZONE,Zone ITE Fan Electric Power at Design Inlet Conditions [W] !Hourly
233,1,EAST ZONE,Zone ITE UPS Heat Gain to Zone Rate [W] !Hourly
234,1,EAST ZONE,Zone ITE Total Heat Gain to Zone Rate [W] !Hourly
239,1,EMS,Power Utilization Effectiveness [] !TimeStep
312,1,WEST ZONE,Zone Air Temperature [C] !TimeStep
313,1,WEST ZONE,Zone Air Relative Humidity [%] !TimeStep
314,1,WEST ZONE,Zone Thermostat Control Type [] !Hourly
315,1,WEST ZONE,Zone Thermostat Heating Setpoint Temperature [C] !Hourly
316,1,WEST ZONE,Zone Thermostat Cooling Setpoint Temperature [C] !Hourly
349,1,EAST ZONE,Zone Air Temperature [C] !TimeStep
350,1,EAST ZONE,Zone Air Relative Humidity [%] !TimeStep
351,1,EAST ZONE,Zone Thermostat Control Type [] !Hourly
352,1,EAST ZONE,Zone Thermostat Heating Setpoint Temperature [C] !Hourly
353,1,EAST ZONE,Zone Thermostat Cooling Setpoint Temperature [C] !Hourly
386,1,WEST PLENUM,Zone Thermostat Control Type [] !Hourly
387,1,WEST PLENUM,Zone Thermostat Heating Setpoint Temperature [C] !Hourly
388,1,WEST PLENUM,Zone Thermostat Cooling Setpoint Temperature [C] !Hourly
421,1,EAST PLENUM,Zone Thermostat Control Type [] !Hourly
422,1,EAST PLENUM,Zone Thermostat Heating Setpoint Temperature [C] !Hourly
423,1,EAST PLENUM,Zone Thermostat Cooling Setpoint Temperature [C] !Hourly
517,1,Whole Building,Facility Total Building Electric Demand Power [W] !Hourly
518,1,Whole Building,Facility Total HVAC Electric Demand Power [W] !Hourly
519,1,Whole Building,Facility Total Electric Demand Power [W] !Hourly
520,1,WEST ZONE,Zone Oscillating Temperatures Time [hr] !Hourly
521,1,EAST ZONE,Zone Oscillating Temperatures Time [hr] !Hourly
522,1,WEST PLENUM,Zone Oscillating Temperatures Time [hr] !Hourly
523,1,EAST PLENUM,Zone Oscillating Temperatures Time [hr] !Hourly
524,1,Facility,Facility Any Zone Oscillating Temperatures Time [hr] !Hourly
525,1,WEST ZONE,Zone Heating Setpoint Not Met Time [hr] !Hourly
526,1,WEST ZONE,Zone Heating Setpoint Not Met While Occupied Time [hr] !Hourly
527,1,WEST ZONE,Zone Cooling Setpoint Not Met Time [hr] !Hourly
528,1,WEST ZONE,Zone Cooling Setpoint Not Met While Occupied Time [hr] !Hourly
529,1,EAST ZONE,Zone Heating Setpoint Not Met Time [hr] !Hourly
530,1,EAST ZONE,Zone Heating Setpoint Not Met While Occupied Time [hr] !Hourly
531,1,EAST ZONE,Zone Cooling Setpoint Not Met Time [hr] !Hourly
532,1,EAST ZONE,Zone Cooling Setpoint Not Met While Occupied Time [hr] !Hourly
533,1,WEST PLENUM,Zone Heating Setpoint Not Met Time [hr] !Hourly
534,1,WEST PLENUM,Zone Heating Setpoint Not Met While Occupied Time [hr] !Hourly
535,1,WEST PLENUM,Zone Cooling Setpoint Not Met Time [hr] !Hourly
536,1,WEST PLENUM,Zone Cooling Setpoint Not Met While Occupied Time [hr] !Hourly
537,1,EAST PLENUM,Zone Heating Setpoint Not Met Time [hr] !Hourly
538,1,EAST PLENUM,Zone Heating Setpoint Not Met While Occupied Time [hr] !Hourly
539,1,EAST PLENUM,Zone Cooling Setpoint Not Met Time [hr] !Hourly
540,1,EAST PLENUM,Zone Cooling Setpoint Not Met While Occupied Time [hr] !Hourly
541,1,WEST ZONE VAV SYSTEM,Zone Air Terminal VAV Damper Position [] !Hourly
542,1,WEST ZONE VAV SYSTEM,Zone Air Terminal Minimum Air Flow Fraction [] !Hourly
543,1,WEST ZONE VAV SYSTEM,Zone Air Terminal Outdoor Air Volume Flow Rate [m3/s] !Hourly
544,1,EAST ZONE VAV SYSTEM,Zone Air Terminal VAV Damper Position [] !Hourly
545,1,EAST ZONE VAV SYSTEM,Zone Air Terminal Minimum Air Flow Fraction [] !Hourly
546,1,EAST ZONE VAV SYSTEM,Zone Air Terminal Outdoor Air Volume Flow Rate [m3/s] !Hourly
599,1,WEST ZONE CW COOLING COIL,Cooling Coil Total Cooling Rate [W] !TimeStep
600,1,WEST ZONE CW COOLING COIL,Cooling Coil Sensible Cooling Rate [W] !TimeStep
603,1,EAST ZONE CW COOLING COIL,Cooling Coil Total Cooling Rate [W] !TimeStep
604,1,EAST ZONE CW COOLING COIL,Cooling Coil Sensible Cooling Rate [W] !TimeStep
605,1,WEST ZONE SUPPLY FAN,Fan Electric Power [W] !Hourly
606,1,WEST ZONE SUPPLY FAN,Fan Rise in Air Temperature [deltaC] !Hourly
607,1,WEST ZONE SUPPLY FAN,Fan Heat Gain to Air [W] !Hourly
608,1,WEST ZONE SUPPLY FAN,Fan Electric Energy [J] !Hourly
639,1,WEST ZONE SUPPLY FAN,Fan Air Mass Flow Rate [kg/s] !Hourly
640,1,EAST ZONE SUPPLY FAN,Fan Electric Power [W] !Hourly
641,1,EAST ZONE SUPPLY FAN,Fan Rise in Air Temperature [deltaC] !Hourly
642,1,EAST ZONE SUPPLY FAN,Fan Heat Gain to Air [W] !Hourly
643,1,EAST ZONE SUPPLY FAN,Fan Electric Energy [J] !Hourly
644,1,EAST ZONE SUPPLY FAN,Fan Air Mass Flow Rate [kg/s] !Hourly
645,1,WEST DATA CENTER IEC,Evaporative Cooler Total Stage Effectiveness [] !TimeStep
646,1,WEST DATA CENTER IEC,Evaporative Cooler Operating Mode Status [] !TimeStep
647,1,EAST DATA CENTER IEC,Evaporative Cooler Total Stage Effectiveness [] !TimeStep
648,1,EAST DATA CENTER IEC,Evaporative Cooler Operating Mode Status [] !TimeStep
649,1,WEST DATA CENTER DEC,Evaporative Cooler Stage Effectiveness [] !TimeStep
650,1,EAST DATA CENTER DEC,Evaporative Cooler Stage Effectiveness [] !TimeStep
662,1,WEST DATA CENTER IEC,Evaporative Cooler Electric Power [W] !TimeStep
663,1,WEST DATA CENTER IEC,Evaporative Cooler Water Volume [m3] !TimeStep
726,1,EAST DATA CENTER IEC,Evaporative Cooler Electric Power [W] !TimeStep
727,1,EAST DATA CENTER IEC,Evaporative Cooler Water Volume [m3] !TimeStep
730,1,WEST DATA CENTER DEC,Evaporative Cooler Electric Power [W] !TimeStep
731,1,WEST DATA CENTER DEC,Evaporative Cooler Water Volume [m3] !TimeStep
734,1,EAST DATA CENTER DEC,Evaporative Cooler Electric Power [W] !TimeStep
735,1,EAST DATA CENTER DEC,Evaporative Cooler Water Volume [m3] !TimeStep
737,1,WEST DX COOLING COIL,Cooling Coil Total Cooling Rate [W] !TimeStep
739,1,WEST DX COOLING COIL,Cooling Coil Sensible Cooling Rate [W] !TimeStep
741,1,EAST DX COOLING COIL,Cooling Coil Total Cooling Rate [W] !TimeStep
743,1,EAST DX COOLING COIL,Cooling Coil Sensible Cooling Rate [W] !TimeStep
766,1,CHILLER,Chiller Evaporator Cooling Rate [W] !Hourly
788,1,CHILLER,Chiller Evaporator Inlet Temperature [C] !Hourly
789,1,CHILLER,Chiller Evaporator Outlet Temperature [C] !Hourly
790,1,CHILLER,Chiller Condenser Heat Transfer Rate [W] !Hourly
802,1,CHILLER,Chiller Condenser Inlet Temperature [C] !Hourly
803,1,CHILLER,Chiller Condenser Outlet Temperature [C] !Hourly
892,1,WEST ZONE INLET NODE,System Node Temperature [C] !TimeStep
893,1,WEST ZONE INLET NODE,System Node Mass Flow Rate [kg/s] !TimeStep
894,1,WEST OUTSIDE AIR INLET NODE,System Node Temperature [C] !TimeStep
895,1,WEST OUTSIDE AIR INLET NODE,System Node Mass Flow Rate [kg/s] !TimeStep
896,1,WEST IEC SECONDARY AIR INLET NODE,System Node Temperature [C] !TimeStep
897,1,WEST IEC SECONDARY AIR INLET NODE,System Node Mass Flow Rate [kg/s] !TimeStep
898,1,WEST ZONE DEC OUTLET NODE,System Node Temperature [C] !TimeStep
899,1,WEST ZONE DEC OUTLET NODE,System Node Setpoint Temperature [C] !TimeStep
900,1,WEST ZONE IEC OUTLET NODE,System Node Temperature [C] !TimeStep
901,1,WEST ZONE IEC OUTLET NODE,System Node Setpoint Temperature [C] !TimeStep
902,1,WEST ZONE CCOIL AIR OUTLET NODE,System Node Temperature [C] !TimeStep
903,1,WEST ZONE CCOIL AIR OUTLET NODE,System Node Setpoint Temperature [C] !TimeStep
904,1,WEST AIR LOOP OUTLET NODE,System Node Temperature [C] !TimeStep
905,1,WEST AIR LOOP OUTLET NODE,System Node Setpoint Temperature [C] !TimeStep
906,1,EAST ZONE INLET NODE,System Node Temperature [C] !TimeStep
907,1,EAST ZONE INLET NODE,System Node Mass Flow Rate [kg/s] !TimeStep
908,1,EAST OUTSIDE AIR INLET NODE,System Node Temperature [C] !TimeStep
909,1,EAST OUTSIDE AIR INLET NODE,System Node Mass Flow Rate [kg/s] !TimeStep
910,1,EAST IEC SECONDARY AIR INLET NODE,System Node Temperature [C] !TimeStep
911,1,EAST IEC SECONDARY AIR INLET NODE,System Node Mass Flow Rate [kg/s] !TimeStep
912,1,EAST ZONE DEC OUTLET NODE,System Node Temperature [C] !TimeStep
913,1,EAST ZONE DEC OUTLET NODE,System Node Setpoint Temperature [C] !TimeStep
914,1,EAST ZONE IEC OUTLET NODE,System Node Temperature [C] !TimeStep
915,1,EAST ZONE IEC OUTLET NODE,System Node Setpoint Temperature [C] !TimeStep
916,1,EAST ZONE CCOIL AIR OUTLET NODE,System Node Temperature [C] !TimeStep
917,1,EAST ZONE CCOIL AIR OUTLET NODE,System Node Setpoint Temperature [C] !TimeStep
918,1,EAST AIR LOOP OUTLET NODE,System Node Temperature [C] !TimeStep
919,1,EAST AIR LOOP OUTLET NODE,System Node Setpoint Temperature [C] !TimeStep
920,1,WEST ZONE RETURN AIR NODE,System Node Temperature [C] !TimeStep
921,1,WEST ZONE RETURN AIR NODE,System Node Mass Flow Rate [kg/s] !TimeStep
922,1,WEST ZONE MIXED AIR NODE,System Node Temperature [C] !TimeStep
923,1,WEST ZONE MIXED AIR NODE,System Node Mass Flow Rate [kg/s] !TimeStep
924,1,WEST ZONE SUPPLY FAN OUTLET NODE,System Node Temperature [C] !TimeStep
925,1,EAST ZONE SUPPLY FAN OUTLET NODE,System Node Temperature [C] !TimeStep
926,1,WEST IEC SECONDARY AIR OUTLET NODE,System Node Temperature [C] !TimeStep
927,1,WEST IEC SECONDARY AIR OUTLET NODE,System Node Mass Flow Rate [kg/s] !TimeStep
End of Data Dictionary
1,WHOLEYEARDAY,  37.62,-122.40,  -8.00,   2.00
2,1, 1, 1, 0, 1, 0.00,15.00,Tuesday
6,6.825
239,1.030029886631446
312,22.682683975454503
313,30.95320057803124
349,23.798682715945309
350,27.39889939827477
599,0.0
600,0.0
603,0.0
604,0.0
645,0.1315593054500639
647,0.0
649,0.19999999999999999
650,0.6999999999999997
662,3.3549168937280617
663,0.0
726,0.0
727,0.0
730,6.022659917320052
731,0.0011611953566480426
734,0.0
735,0.0
737,0.0
739,0.0
741,0.0
743,0.0
892,13.830948964456562
893,2.0356567857142857
894,6.824999999999999
895,1.152970116963192
896,6.824999999999999
897,0.3225989084116785
898,13.002453378702376
899,14.030799214285711
900,12.0767122713509
901,14.030799214285711
902,12.0767122713509
903,14.030799214285711
904,12.0767122713509
905,14.030799214285711
906,21.83788386506982
907,6.486481058187731
908,6.824999999999999
909,0.0
910,6.824999999999999
911,0.0
912,23.8835967192887
913,38.70232907142857
914,23.8835967192887
915,38.70232907142857
916,23.8835967192887
917,38.70232907142857
918,23.8835967192887
919,38.70232907142857
920,22.73282311471302
921,2.0356567857142857
922,13.668875369604035
923,2.0356567857142857
924,14.091039010618355
925,23.8835967192887
926,8.895031397518915
927,0.3225989084116785
646,0.35714285714285706
648,0.0
2,1, 1, 1, 0, 1,15.00,30.00,Tuesday
6,6.95
239,1.0820655459342175
312,21.826839477642808
313,35.21723013281826
349,33.84804725638214
350,16.13162321345603
599,0.0
600,0.0
603,34.03346079146554
604,34.03346079146554
645,0.1593389704597995
647,0.0
649,0.2333333333333334
650,0.6999999999999997
662,3.6124263014291717
663,0.0
726,0.0
727,0.0
730,7.629831764996568
731,0.0019986135618294679
734,1.172530628712039
735,0.0017789751366975337
737,0.0
739,0.0
741,0.0
743,0.0
892,13.898295474815632
893,2.7161852000000006
894,6.949999999999998
895,1.4062138053835305
896,6.949999999999998
897,0.4453129266481657
898,12.891855252201442
899,14.180333066666668
900,11.806501163286626
901,14.180333066666668
902,11.806501163286626
903,14.180333066666668
904,11.806501163286626
905,14.180333066666668
906,28.64013081347083
907,6.296303742655651
908,6.949999999999998
909,0.2319637095499948
910,6.949999999999998
911,0.0
912,31.625855548482563
913,36.16233246666667
914,31.625855548482563
915,36.16233246666667
916,31.625855548482563
917,36.16233246666667
918,31.620591778046994
919,36.16233246666667
920,21.818091478084538
921,2.7161852000000006
922,13.7954940448067
923,2.7161852000000006
924,14.163974575947675
925,32.11574318971746
926,9.472841240486025
927,0.4453129266481657
646,0.46666666666666675
648,0.0
2,1, 1, 1, 0, 1,30.00,45.00,Tuesday
6,7.075
239,1.0288409431225847
312,21.89842734970951
313,36.41393762111781
349,43.36509402134468
350,11.385059936652667
599,0.0
600,0.0
603,18.627712167425103
604,18.6277121674283
645,0.09262728426219552
647,0.012075265983151083
649,0.09333333333333333
650,0.46666666666666659
662,1.2406592058973028
663,0.0
726,0.0
727,0.0
730,3.3323185444045726
731,0.0006546119217638205
734,2.949462969778054
735,0.005126856335200878
737,0.0
739,0.0
741,0.0
743,0.0
892,13.08104904801827
893,2.4617808
894,7.075
895,1.7899825787992506
896,7.075
897,0.25674133739153318
898,11.1053605076033
899,11.939724733333332
900,10.666775018416292
901,11.939724733333332
902,10.666775018416292
903,11.939724733333332
904,10.666775018416292
905,11.939724733333332
906,32.76411699520832
907,6.626039485311304
908,7.075
909,1.037687848099805
910,7.075
911,0.02473743104514939
912,35.879418981413
913,37.53342946666667
914,35.737926873825028
915,37.53342946666667
916,35.737926873825028
917,37.53342946666667
918,35.735305429242128
919,37.53342946666667
920,21.91192484228167
921,2.4617808
922,11.296416669330933
923,2.4617808
924,11.682391992344695
925,37.20645482967408
926,8.38239223080651
927,0.25674133739153318
646,0.3333333333333333
648,0.13333333333333334
2,1, 1, 1, 0, 1,45.00,60.00,Tuesday
6,7.2
239,1.024298266109587
312,20.995516734671939
313,37.785137254165118
349,45.11811034804687
350,11.08607416685322
599,0.0
600,0.0
603,0.9213785458547879
604,0.9213785458561008
645,0.10261309378085225
647,0.02183244164120324
649,0.0
650,0.44545454545454646
662,3.5272101584370967
663,0.0
726,1.378138954815621
727,0.0
730,0.0
731,0.0
734,1.8718734327168743
735,0.0032971450282931657
737,0.0
739,0.0
741,0.0
743,0.0
892,12.5684749402404
893,2.3710867272727329
894,7.200000000000017
895,1.8119726237131729
896,7.200000000000017
897,0.3153958631504956
898,10.879289721194985
899,11.424215545454569
900,10.404950004736693
901,11.424215545454569
902,10.404950004736693
903,11.424215545454569
904,10.404950004736693
905,11.424215545454569
906,33.74945008244368
907,6.543376746341121
908,7.200000000000017
909,1.2283415181622335
910,7.200000000000017
911,0.15363128924700193
912,37.264750530971337
913,38.12069527272737
914,36.549432742656119
915,38.12069527272737
916,36.549432742656119
917,38.12069527272737
918,36.5492683928112
919,38.12069527272737
920,21.030100518197619
921,2.3710867272727329
922,10.492622614989012
923,2.3710867272727329
924,10.879289721194985
925,38.1172298487994
926,8.448954498792589
927,0.3153958631504956
646,0.3636363636363645
648,0.09090909090909112
2,1, 1, 1, 0, 1, 0.00,60.00,Tuesday
133,11732.17406720572
134,8014.769149868234
135,1974.6943217073951
136,13936.849545599995
137,10219.334400000002
138,1974.6943217073951
139,21721.637538781353
173,2.941524906925814
174,13.813512856989519
175,4.893840097220145
176,0.5492262278588397
177,21.79021200615106
178,0.10708010131603031
179,1.0
180,0.0
181,0.0
182,0.0
183,0.0
184,0.0
185,1.0
186,0.0
187,0.0
188,0.0
189,0.0
190,0.0
191,-19.45077377214116
192,11732.17406720572
193,8014.769149868234
194,1974.6943217073951
195,13936.849545599995
196,10219.334400000002
197,1974.6943217073951
198,21721.637538781353
199,39455.60382063364
200,35307.57393793675
201,7476.317775857037
202,15546.354479999996
203,11399.520000000002
204,7476.317775857037
205,82239.49553442744
209,12.233944388936273
210,26.535073113486545
211,5.10687521871828
212,0.2857232038925397
213,33.963167376000139
214,0.08773927048552811
215,1.0
216,0.0
217,0.0
218,0.0
219,0.0
220,0.0
221,1.0
222,0.0
223,0.0
224,0.0
225,0.0
226,0.0
227,-19.714276796107464
228,39455.60382063364
229,35307.57393793675
230,7476.317775857037
231,15546.354479999996
232,11399.520000000002
233,7476.317775857037
234,82239.49553442744
315,20.0
316,23.0
352,20.0
353,23.0
387,0.0
388,0.0
422,0.0
423,0.0
525,0.0
526,0.0
527,0.0
528,0.0
529,0.0
530,0.0
531,1.0
532,0.0
533,0.0
534,0.0
535,0.0
536,0.0
537,0.0
538,0.0
539,0.0
540,0.0
314,4.0
351,4.0
386,0.0
421,0.0
517,103989.53307320886
518,3597.806278389762
519,107587.33935159861
520,0.0
521,0.03333333333333333
522,0.034523809523809529
523,0.016666666666666668
524,0.06785714285714287
541,0.38411966184157056
542,0.40000000000000027
543,1.2792816568454005
544,0.9283209197847887
545,0.40000000000000027
546,0.5186762798326219
605,994.1453326897351
606,0.3908216503437587
607,894.7307994207615
608,3578923.1976830444
639,2.3961773782467548
640,2214.367889996462
641,0.3015099832809185
642,1992.9311009968155
643,7971724.403987257
644,6.488050258123951
766,2.5274042953398685
788,10.207708427646067
789,9.974366422558607
790,2.8934337686408897
802,9.923509149789777
803,9.923535512948348
2,1, 1, 1, 0, 2, 0.00,15.00,Tuesday
6,7.2
239,1.0575284252227613
312,21.387363512861023
313,37.92224552639938
349,47.910003115962
350,10.218885951969212
599,0.0
600,0.0
603,0.0
604,0.0
645,0.1515487088649164
647,0.0461754088713692
649,0.2999999999999999
650,0.3499999999999999
662,2.042302323908707
663,0.0
726,4.741003924821833
727,0.0
730,10.781883389988736
731,0.0021549881009639895
734,2.483495157205418
735,0.00432163373062436
737,0.0
739,0.0
741,0.0
743,0.0
892,13.867711754002175
893,2.281202714285714
894,7.199999999999999
895,1.1273992192391367
896,7.199999999999999
897,0.362650794049008
898,13.016780901864156
899,14.936158428571427
900,12.179994490715064
901,14.936158428571427
902,12.179994490715064
903,14.936158428571427
904,12.179994490715064
905,14.936158428571427
906,32.86739826160326
907,6.485315948547824
908,7.199999999999999
909,1.7140486798069315
910,7.199999999999999
911,0.2659982457351582
912,36.231799917243808
913,37.378131142857139
914,35.18384264802974
915,37.378131142857139
916,35.18384264802974
917,37.378131142857139
918,35.18384264802974
919,37.378131142857139
920,21.287837412930434
921,2.281202714285714
922,14.359748000857938
923,2.281202714285714
924,14.761133051535535
925,37.37680999554065
926,9.174713591908726
927,0.362650794049008
646,0.42857142857142846
648,0.28571428571428567
2,1, 1, 1, 0, 2,15.00,30.00,Tuesday
6,7.2
239,1.0201286313177869
312,23.862575994817349
313,32.788317223846878
349,46.579200562919627
350,10.795859654115804
599,0.0
600,0.0
603,27.006593690285948
604,27.006593690287244
645,0.13693731166143176
647,0.018137580981574459
649,0.06999999999999999
650,0.4200000000000001
662,2.8861061574776607
663,0.0
726,0.4963501496841425
727,0.0
730,3.0
731,0.000517869331706244
734,1.2960529092547067
735,0.001892267559055113
737,0.0
739,0.0
741,0.0
743,0.0
892,12.71455546983346
893,2.3205071000000005
894,7.2
895,1.8257538176517008
896,7.2
897,0.31647123685866648
898,10.91081566480997
899,11.454462800000002
900,9.957623355481737
901,11.454462800000002
902,9.957623355481737
903,11.454462800000002
904,9.957623355481737
905,11.454462800000002
906,33.040125759749837
907,6.644122420975218
908,7.2
909,1.7769137728789315
910,7.2
911,0.11079548612409247
912,35.88422566072284
913,36.60809470000001
914,35.36844362223206
915,36.60809470000001
916,35.36844362223206
917,36.60809470000001
918,35.36464372519148
919,36.60809470000001
920,23.604758919715839
921,2.3205071000000005
922,11.050761862013717
923,2.3205071000000005
