Program Version,EnergyPlus, Version 8.8.0-Unknown, YMD=2019.07.12 13:20
1,5,Environment Title[],Latitude[deg],Longitude[deg],Time Zone[],Elevation[m]
2,6,Day of Simulation[],Month[],Day of Month[],DST Indicator[1=yes 0=no],Hour[],StartMinute[],EndMinute[],DayType
3,3,Cumulative Day of Simulation[],Month[],Day of Month[],DST Indicator[1=yes 0=no],DayType  ! When Daily Report Variables Requested
4,2,Cumulative Days of Simulation[],Month[]  ! When Monthly Report Variables Requested
5,1,Cumulative Days of Simulation[] ! When Run Period Report Variables Requested
6,1,Environment,Site Outdoor Air Drybulb Temperature [C] !TimeStep
133,1,WESTDATACENTER_EQUIP,ITE CPU Electric Power [W] !Hourly
134,1,WESTDATACENTER_EQUIP,ITE Fan Electric Power [W] !Hourly
135,1,WESTDATACENTER_EQUIP,ITE UPS Electric Power [W] !Hourly
136,1,WESTDATACENTER_EQUIP,ITE CPU Electric Power at Design Inlet Conditions [W] !Hourly
137,1,WESTDATACENTER_EQUIP,ITE Fan Electric Power at Design Inlet Conditions [W] !Hourly
138,1,WESTDATACENTER_EQUIP,ITE UPS Heat Gain to Zone Rate [W] !Hourly
139,1,WESTDATACENTER_EQUIP,ITE Total Heat Gain to Zone Rate [W] !Hourly
173,1,WESTDATACENTER_EQUIP,ITE Standard Density Air Volume Flow Rate [m3/s] !Hourly
174,1,WESTDATACENTER_EQUIP,ITE Air Inlet Dry-Bulb Temperature [C] !Hourly
175,1,WESTDATACENTER_EQUIP,ITE Air Inlet Dewpoint Temperature [C] !Hourly
176,1,WESTDATACENTER_EQUIP,ITE Air Inlet Relative Humidity [%] !Hourly
177,1,WESTDATACENTER_EQUIP,ITE Air Outlet Dry-Bulb Temperature [C] !Hourly
178,1,WESTDATACENTER_EQUIP,ITE Supply Heat Index [] !Hourly
179,1,WESTDATACENTER_EQUIP,ITE Air Inlet Operating Range Exceeded Time [hr] !Hourly
180,1,WESTDATACENTER_EQUIP,ITE Air Inlet Dry-Bulb Temperature Above Operating Range Time [hr] !Hourly
181,1,WESTDATACENTER_EQUIP,ITE Air Inlet Dry-Bulb Temperature Below Operating Range Time [hr] !Hourly
182,1,WESTDATACENTER_EQUIP,ITE Air Inlet Dewpoint Temperature Above Operating Range Time [hr] !Hourly
183,1,WESTDATACENTER_EQUIP,ITE Air Inlet Dewpoint Temperature Below Operating Range Time [hr] !Hourly
184,1,WESTDATACENTER_EQUIP,ITE Air Inlet Relative Humidity Above Operating Range Time [hr] !Hourly
185,1,WESTDATACENTER_EQUIP,ITE Air Inlet Relative Humidity Below Operating Range Time [hr] !Hourly
186,1,WESTDATACENTER_EQUIP,ITE Air Inlet Dry-Bulb Temperature Difference Above Operating Range [deltaC] !Hourly
187,1,WESTDATACENTER_EQUIP,ITE Air Inlet Dry-Bulb Temperature Difference Below Operating Range [deltaC] !Hourly
188,1,WESTDATACENTER_EQUIP,ITE Air Inlet Dewpoint Temperature Difference Above Operating Range [deltaC] !Hourly
189,1,WESTDATACENTER_EQUIP,ITE Air Inlet Dewpoint Temperature Difference Below Operating Range [deltaC] !Hourly
190,1,WESTDATACENTER_EQUIP,ITE Air Inlet Relative Humidity Difference Above Operating Range [%] !Hourly
191,1,WESTDATACENTER_EQUIP,ITE Air Inlet Relative Humidity Difference Below Operating Range [%] !Hourly
192,1,WEST ZONE,Zone ITE CPU Electric Power [W] !Hourly
193,1,WEST ZONE,Zone ITE Fan Electric Power [W] !Hourly
194,1,WEST ZONE,Zone ITE UPS Electric Power [W] !Hourly
195,1,WEST ZONE,Zone ITE CPU Electric Power at Design Inlet Conditions [W] !Hourly
196,1,WEST ZONE,Zone ITE Fan Electric Power at Design Inlet Conditions [W] !Hourly
197,1,WEST ZONE,Zone ITE UPS Heat Gain to Zone Rate [W] !Hourly
198,1,WEST ZONE,Zone ITE Total Heat Gain to Zone Rate [W] !Hourly
199,1,EASTDATACENTER_EQUIP,ITE CPU Electric Power [W] !Hourly
200,1,EASTDATACENTER_EQUIP,ITE Fan Electric Power [W] !Hourly
201,1,EASTDATACENTER_EQUIP,ITE UPS Electric Power [W] !Hourly
202,1,EASTDATACENTER_EQUIP,ITE CPU Electric Power at Design Inlet Conditions [W] !Hourly
203,1,EASTDATACENTER_EQUIP,ITE Fan Electric Power at Design Inlet Conditions [W] !Hourly
204,1,EASTDATACENTER_EQUIP,ITE UPS Heat Gain to Zone Rate [W] !Hourly
205,1,EASTDATACENTER_EQUIP,ITE Total Heat Gain to Zone Rate [W] !Hourly
209,1,EASTDATACENTER_EQUIP,ITE Standard Density Air Volume Flow Rate [m3/s] !Hourly
210,1,EASTDATACENTER_EQUIP,ITE Air Inlet Dry-Bulb Temperature [C] !Hourly
211,1,EASTDATACENTER_EQUIP,ITE Air Inlet Dewpoint Temperature [C] !Hourly
212,1,EASTDATACENTER_EQUIP,ITE Air Inlet Relative Humidity [%] !Hourly
213,1,EASTDATACENTER_EQUIP,ITE Air Outlet Dry-Bulb Temperature [C] !Hourly
214,1,EASTDATACENTER_EQUIP,ITE Supply Heat Index [] !Hourly
215,1,EASTDATACENTER_EQUIP,ITE Air Inlet Operating Range Exceeded Time [hr] !Hourly
216,1,EASTDATACENTER_EQUIP,ITE Air Inlet Dry-Bulb Temperature Above Operating Range Time [hr] !Hourly
217,1,EASTDATACENTER_EQUIP,ITE Air Inlet Dry-Bulb Temperature Below Operating Range Time [hr] !Hourly
218,1,EASTDATACENTER_EQUIP,ITE Air Inlet Dewpoint Temperature Above Operating Range Time [hr] !Hourly
219,1,EASTDATACENTER_EQUIP,ITE Air Inlet Dewpoint Temperature Below Operating Range Time [hr] !Hourly
220,1,EASTDATACENTER_EQUIP,ITE Air Inlet Relative Humidity Above Operating Range Time [hr] !Hourly
221,1,EASTDATACENTER_EQUIP,ITE Air Inlet Relative Humidity Below Operating Range Time [hr] !Hourly
222,1,EASTDATACENTER_EQUIP,ITE Air Inlet Dry-Bulb Temperature Difference Above Operating Range [deltaC] !Hourly
223,1,EASTDATACENTER_EQUIP,ITE Air Inlet Dry-Bulb Temperature Difference Below Operating Range [deltaC] !Hourly
224,1,EASTDATACENTER_EQUIP,ITE Air Inlet Dewpoint Temperature Difference Above Operating Range [deltaC] !Hourly
225,1,EASTDATACENTER_EQUIP,ITE Air Inlet Dewpoint Temperature Difference Below Operating Range [deltaC] !Hourly
226,1,EASTDATACENTER_EQUIP,ITE Air Inlet Relative Humidity Difference Above Operating Range [%] !Hourly
227,1,EASTDATACENTER_EQUIP,ITE Air Inlet Relative Humidity Difference Below Operating Range [%] !Hourly
228,1,EAST ZONE,Zone ITE CPU Electric Power [W] !Hourly
229,1,EAST ZONE,Zone ITE Fan Electric Power [W] !Hourly
230,1,EAST ZONE,Zone ITE UPS Electric Power [W] !Hourly
231,1,EAST ZONE,Zone ITE CPU Electric Power at Design Inlet Conditions [W] !Hourly
232,1,EAST ZONE,Zone ITE Fan Electric Power at Design Inlet Conditions [W] !Hourly
233,1,EAST ZONE,Zone ITE UPS Heat Gain to Zone Rate [W] !Hourly
234,1,EAST ZONE,Zone ITE Total Heat Gain to Zone Rate [W] !Hourly
239,1,EMS,Power Utilization Effectiveness [] !TimeStep
312,1,WEST ZONE,Zone Air Temperature [C] !TimeStep
313,1,WEST ZONE,Zone Air Relative Humidity [%] !TimeStep
314,1,WEST ZONE,Zone Thermostat Control Type [] !Hourly
315,1,WEST ZONE,Zone Thermostat Heating Setpoint Temperature [C] !Hourly
316,1,WEST ZONE,Zone Thermostat Cooling Setpoint Temperature [C] !Hourly
349,1,EAST ZONE,Zone Air Temperature [C] !TimeStep
350,1,EAST ZONE,Zone Air Relative Humidity [%] !TimeStep
351,1,EAST ZONE,Zone Thermostat Control Type [] !Hourly
352,1,EAST ZONE,Zone Thermostat Heating Setpoint Temperature [C] !Hourly
353,1,EAST ZONE,Zone Thermostat Cooling Setpoint Temperature [C] !Hourly
386,1,WEST PLENUM,Zone Thermostat Control Type [] !Hourly
387,1,WEST PLENUM,Zone Thermostat Heating Setpoint Temperature [C] !Hourly
388,1,WEST PLENUM,Zone Thermostat Cooling Setpoint Temperature [C] !Hourly
421,1,EAST PLENUM,Zone Thermostat Control Type [] !Hourly
422,1,EAST PLENUM,Zone Thermostat Heating Setpoint Temperature [C] !Hourly
423,1,EAST PLENUM,Zone Thermostat Cooling Setpoint Temperature [C] !Hourly
517,1,Whole Building,Facility Total Building Electric Demand Power [W] !Hourly
518,1,Whole Building,Facility Total HVAC Electric Demand Power [W] !Hourly
519,1,Whole Building,Facility Total Electric Demand Power [W] !Hourly
520,1,WEST ZONE,Zone Oscillating Temperatures Time [hr] !Hourly
521,1,EAST ZONE,Zone Oscillating Temperatures Time [hr] !Hourly
522,1,WEST PLENUM,Zone Oscillating Temperatures Time [hr] !Hourly
523,1,EAST PLENUM,Zone Oscillating Temperatures Time [hr] !Hourly
524,1,Facility,Facility Any Zone Oscillating Temperatures Time [hr] !Hourly
525,1,WEST ZONE,Zone Heating Setpoint Not Met Time [hr] !Hourly
526,1,WEST ZONE,Zone Heating Setpoint Not Met While Occupied Time [hr] !Hourly
527,1,WEST ZONE,Zone Cooling Setpoint Not Met Time [hr] !Hourly
528,1,WEST ZONE,Zone Cooling Setpoint Not Met While Occupied Time [hr] !Hourly
529,1,EAST ZONE,Zone Heating Setpoint Not Met Time [hr] !Hourly
530,1,EAST ZONE,Zone Heating Setpoint Not Met While Occupied Time [hr] !Hourly
531,1,EAST ZONE,Zone Cooling Setpoint Not Met Time [hr] !Hourly
532,1,EAST ZONE,Zone Cooling Setpoint Not Met While Occupied Time [hr] !Hourly
533,1,WEST PLENUM,Zone Heating Setpoint Not Met Time [hr] !Hourly
534,1,WEST PLENUM,Zone Heating Setpoint Not Met While Occupied Time [hr] !Hourly
535,1,WEST PLENUM,Zone Cooling Setpoint Not Met Time [hr] !Hourly
536,1,WEST PLENUM,Zone Cooling Setpoint Not Met While Occupied Time [hr] !Hourly
537,1,EAST PLENUM,Zone Heating Setpoint Not Met Time [hr] !Hourly
538,1,EAST PLENUM,Zone Heating Setpoint Not Met While Occupied Time [hr] !Hourly
539,1,EAST PLENUM,Zone Cooling Setpoint Not Met Time [hr] !Hourly
540,1,EAST PLENUM,Zone Cooling Setpoint Not Met While Occupied Time [hr] !Hourly
541,1,WEST ZONE VAV SYSTEM,Zone Air Terminal VAV Damper Position [] !Hourly
542,1,WEST ZONE VAV SYSTEM,Zone Air Terminal Minimum Air Flow Fraction [] !Hourly
543,1,WEST ZONE VAV SYSTEM,Zone Air Terminal Outdoor Air Volume Flow Rate [m3/s] !Hourly
544,1,EAST ZONE VAV SYSTEM,Zone Air Terminal VAV Damper Position [] !Hourly
545,1,EAST ZONE VAV SYSTEM,Zone Air Terminal Minimum Air Flow Fraction [] !Hourly
546,1,EAST ZONE VAV SYSTEM,Zone Air Terminal Outdoor Air Volume Flow Rate [m3/s] !Hourly
599,1,WEST ZONE CW COOLING COIL,Cooling Coil Total Cooling Rate [W] !TimeStep
600,1,WEST ZONE CW COOLING COIL,Cooling Coil Sensible Cooling Rate [W] !TimeStep
603,1,EAST ZONE CW COOLING COIL,Cooling Coil Total Cooling Rate [W] !TimeStep
604,1,EAST ZONE CW COOLING COIL,Cooling Coil Sensible Cooling Rate [W] !TimeStep
605,1,WEST ZONE SUPPLY FAN,Fan Electric Power [W] !Hourly
606,1,WEST ZONE SUPPLY FAN,Fan Rise in Air Temperature [deltaC] !Hourly
607,1,WEST ZONE SUPPLY FAN,Fan Heat Gain to Air [W] !Hourly
608,1,WEST ZONE SUPPLY FAN,Fan Electric Energy [J] !Hourly
639,1,WEST ZONE SUPPLY FAN,Fan Air Mass Flow Rate [kg/s] !Hourly
640,1,EAST ZONE SUPPLY FAN,Fan Electric Power [W] !Hourly
641,1,EAST ZONE SUPPLY FAN,Fan Rise in Air Temperature [deltaC] !Hourly
642,1,EAST ZONE SUPPLY FAN,Fan Heat Gain to Air [W] !Hourly
643,1,EAST ZONE SUPPLY FAN,Fan Electric Energy [J] !Hourly
644,1,EAST ZONE SUPPLY FAN,Fan Air Mass Flow Rate [kg/s] !Hourly
645,1,WEST DATA CENTER IEC,Evaporative Cooler Total Stage Effectiveness [] !TimeStep
646,1,WEST DATA CENTER IEC,Evaporative Cooler Operating Mode Status [] !TimeStep
647,1,EAST DATA CENTER IEC,Evaporative Cooler Total Stage Effectiveness [] !TimeStep
648,1,EAST DATA CENTER IEC,Evaporative Cooler Operating Mode Status [] !TimeStep
649,1,WEST DATA CENTER DEC,Evaporative Cooler Stage Effectiveness [] !TimeStep
650,1,EAST DATA CENTER DEC,Evaporative Cooler Stage Effectiveness [] !TimeStep
662,1,WEST DATA CENTER IEC,Evaporative Cooler Electric Power [W] !TimeStep
663,1,WEST DATA CENTER IEC,Evaporative Cooler Water Volume [m3] !TimeStep
726,1,EAST DATA CENTER IEC,Evaporative Cooler Electric Power [W] !TimeStep
727,1,EAST DATA CENTER IEC,Evaporative Cooler Water Volume [m3] !TimeStep
730,1,WEST DATA CENTER DEC,Evaporative Cooler Electric Power [W] !TimeStep
731,1,WEST DATA CENTER DEC,Evaporative Cooler Water Volume [m3] !TimeStep
734,1,EAST DATA CENTER DEC,Evaporative Cooler Electric Power [W] !TimeStep
735,1,EAST DATA CENTER DEC,Evaporative Cooler Water Volume [m3] !TimeStep
737,1,WEST DX COOLING COIL,Cooling Coil Total Cooling Rate [W] !TimeStep
739,1,WEST DX COOLING COIL,Cooling Coil Sensible Cooling Rate [W] !TimeStep
741,1,EAST DX COOLING COIL,Cooling Coil Total Cooling Rate [W] !TimeStep
743,1,EAST DX COOLING COIL,Cooling Coil Sensible Cooling Rate [W] !TimeStep
766,1,CHILLER,Chiller Evaporator Cooling Rate [W] !Hourly
788,1,CHILLER,Chiller Evaporator Inlet Temperature [C] !Hourly
789,1,CHILLER,Chiller Evaporator Outlet Temperature [C] !Hourly
790,1,CHILLER,Chiller Condenser Heat Transfer Rate [W] !Hourly
802,1,CHILLER,Chiller Condenser Inlet Temperature [C] !Hourly
803,1,CHILLER,Chiller Condenser Outlet Temperature [C] !Hourly
892,1,WEST ZONE INLET NODE,System Node Temperature [C] !TimeStep
893,1,WEST ZONE INLET NODE,System Node Mass Flow Rate [kg/s] !TimeStep
894,1,WEST OUTSIDE AIR INLET NODE,System Node Temperature [C] !TimeStep
895,1,WEST OUTSIDE AIR INLET NODE,System Node Mass Flow Rate [kg/s] !TimeStep
896,1,WEST IEC SECONDARY AIR INLET NODE,System Node Temperature [C] !TimeStep
897,1,WEST IEC SECONDARY AIR INLET NODE,System Node Mass Flow Rate [kg/s] !TimeStep
898,1,WEST ZONE DEC OUTLET NODE,System Node Temperature [C] !TimeStep
899,1,WEST ZONE DEC OUTLET NODE,System Node Setpoint Temperature [C] !TimeStep
900,1,WEST ZONE IEC OUTLET NODE,System Node Temperature [C] !TimeStep
901,1,WEST ZONE IEC OUTLET NODE,System Node Setpoint Temperature [C] !TimeStep
902,1,WEST ZONE CCOIL AIR OUTLET NODE,System Node Temperature [C] !TimeStep
903,1,WEST ZONE CCOIL AIR OUTLET NODE,System Node Setpoint Temperature [C] !TimeStep
904,1,WEST AIR LOOP OUTLET NODE,System Node Temperature [C] !TimeStep
905,1,WEST AIR LOOP OUTLET NODE,System Node Setpoint Temperature [C] !TimeStep
906,1,EAST ZONE INLET NODE,System Node Temperature [C] !TimeStep
907,1,EAST ZONE INLET NODE,System Node Mass Flow Rate [kg/s] !TimeStep
908,1,EAST OUTSIDE AIR INLET NODE,System Node Temperature [C] !TimeStep
909,1,EAST OUTSIDE AIR INLET NODE,System Node Mass Flow Rate [kg/s] !TimeStep
910,1,EAST IEC SECONDARY AIR INLET NODE,System Node Temperature [C] !TimeStep
911,1,EAST IEC SECONDARY AIR INLET NODE,System Node Mass Flow Rate [kg/s] !TimeStep
912,1,EAST ZONE DEC OUTLET NODE,System Node Temperature [C] !TimeStep
913,1,EAST ZONE DEC OUTLET NODE,System Node Setpoint Temperature [C] !TimeStep
914,1,EAST ZONE IEC OUTLET NODE,System Node Temperature [C] !TimeStep
915,1,EAST ZONE IEC OUTLET NODE,System Node Setpoint Temperature [C] !TimeStep
916,1,EAST ZONE CCOIL AIR OUTLET NODE,System Node Temperature [C] !TimeStep
917,1,EAST ZONE CCOIL AIR OUTLET NODE,System Node Setpoint Temperature [C] !TimeStep
918,1,EAST AIR LOOP OUTLET NODE,System Node Temperature [C] !TimeStep
919,1,EAST AIR LOOP OUTLET NODE,System Node Setpoint Temperature [C] !TimeStep
920,1,WEST ZONE RETURN AIR NODE,System Node Temperature [C] !TimeStep
921,1,WEST ZONE RETURN AIR NODE,System Node Mass Flow Rate [kg/s] !TimeStep
922,1,WEST ZONE MIXED AIR NODE,System Node Temperature [C] !TimeStep
923,1,WEST ZONE MIXED AIR NODE,System Node Mass Flow Rate [kg/s] !TimeStep
924,1,WEST ZONE SUPPLY FAN OUTLET NODE,System Node Temperature [C] !TimeStep
925,1,EAST ZONE SUPPLY FAN OUTLET NODE,System Node Temperature [C] !TimeStep
926,1,WEST IEC SECONDARY AIR OUTLET NODE,System Node Temperature [C] !TimeStep
927,1,WEST IEC SECONDARY AIR OUTLET NODE,System Node Mass Flow Rate [kg/s] !TimeStep
End of Data Dictionary
1,WHOLEYEARDAY,  37.62,-122.40,  -8.00,   2.00
2,1, 1, 1, 0, 1, 0.00,15.00,Tuesday
6,6.825
239,1.0300298866314462
312,21.95639932122107
313,34.20291573749942
349,23.977474993330746
350,27.098288220392889
599,0.0
600,0.0
603,0.0
604,0.0
645,0.15690191930133627
647,0.0
649,0.3733333333333333
650,0.6999999999999997
662,12.104117282597479
663,0.0
726,0.0
727,0.0
730,10.0
731,0.0033983661766446807
734,0.48169340297018289
735,0.00046064271529947545
737,0.0
739,0.0
741,0.0
743,0.0
892,15.073657258788506
893,2.9505570666666669
894,6.825
895,1.0269455234347543
896,6.825
897,0.6415233716206565
898,15.56602392795681
899,18.221032666666667
900,14.307070356588108
901,18.221032666666667
902,14.307070356588108
903,18.221032666666667
904,14.307070356588108
905,18.221032666666667
906,22.03735663343925
907,6.363726773658405
908,6.825
909,0.0
910,6.825
911,0.0
912,23.917066599015123
913,37.64998786666668
914,23.917066599015123
915,37.64998786666668
916,23.917066599015123
917,37.64998786666668
918,23.917066599015123
919,37.64998786666668
920,22.078367644789503
921,2.9505570666666669
922,17.43227806848998
923,2.9505570666666669
924,17.78558652837499
925,24.05446069527074
926,9.385722082235347
927,0.6415233716206565
646,0.39999999999999999
648,0.0
2,1, 1, 1, 0, 1,15.00,30.00,Tuesday
6,6.95
239,1.0699384100954304
312,22.887749891019348
313,36.64688151317684
349,34.79623185681376
350,15.836646946271158
599,0.0
600,0.0
603,0.0
604,0.0
645,0.11362126023005963
647,0.0
649,0.32666666666666668
650,0.6999999999999997
662,8.179472181710479
663,0.0
726,0.0
727,0.0
730,9.09653469214869
731,0.0032378815794861716
734,2.248688809101462
735,0.0034243095853344355
737,0.0
739,0.0
741,0.0
743,0.0
892,15.413254843428243
893,2.5779210228389228
894,6.9499999999999979
895,0.9448194330535961
896,6.9499999999999979
897,0.4689718913082942
898,15.26839938191506
899,17.9591718
900,14.364843307912233
901,17.9591718
902,14.364843307912233
903,17.9591718
904,14.364843307912233
905,17.9591718
906,28.996445778791985
907,6.340440711652898
908,6.9499999999999979
909,0.26349694000822479
910,6.9499999999999979
911,0.0
912,31.906952634217988
913,37.5572272
914,31.906952634217988
915,37.5572272
916,31.906952634217988
917,37.5572272
918,31.906952634217988
919,37.5572272
920,22.832058748023738
921,2.5779210228389228
922,16.597357266552778
923,2.5779210228389228
924,16.98673971124868
925,32.87346238295805
926,9.27579768996857
927,0.4689718913082942
646,0.3333333333333333
648,0.0
2,1, 1, 1, 0, 1,30.00,45.00,Tuesday
6,7.075
239,1.0373320411911078
312,22.66869594496727
313,40.19467710068698
349,41.41626572387072
350,13.651430280975186
599,0.0
600,0.0
603,19.12151524699784
604,19.121515246996965
645,0.1465882592354049
647,0.04660982633174536
649,0.41999999999999995
650,0.41999999999999995
662,2.701808036759286
663,0.0
726,2.7594344397966088
727,0.0
730,11.504528462607713
731,0.002648007649973113
734,3.102391767918525
735,0.004727597915405316
737,0.0
739,0.0
741,0.0
743,0.0
892,15.169619494844902
893,2.51536
894,7.075
895,0.9434775168055922
896,7.075
897,0.35250964447826257
898,15.448117025927072
899,17.447262666666668
900,14.297948875205624
901,17.447262666666668
902,14.297948875205624
903,17.447262666666668
904,14.297948875205624
905,17.447262666666668
906,31.167034388091538
907,6.334245978319564
908,7.075
909,0.8988384197205774
910,7.075
911,0.24402507540662994
912,34.752954925877428
913,37.010574266666669
914,33.67199558720936
915,37.010574266666669
916,33.67199558720936
917,37.010574266666669
918,33.669308164860108
919,37.010574266666669
920,22.595134979946346
921,2.51536
922,17.09972328995544
923,2.51536
924,17.47471561505937
925,36.09149265552898
926,9.84842430878715
927,0.35250964447826257
646,0.39999999999999999
648,0.26666666666666669
2,1, 1, 1, 0, 1,45.00,60.00,Tuesday
6,7.2
239,1.022664616190586
312,26.580449083913096
313,32.82975606923309
349,46.35924005821845
350,11.014511001833155
599,0.0
600,0.0
603,0.0
604,0.0
645,0.13783333942165516
647,0.07736404939874565
649,0.3733333333333333
650,0.32666666666666668
662,4.009201197302875
663,0.0
726,8.04272168504265
727,0.0
730,9.305931481226388
731,0.001846215015926837
734,1.3198371854409703
735,0.0020916093287987149
737,0.0
739,0.0
741,0.0
743,0.0
892,15.217962198932672
893,1.9390364000000003
894,7.200000000000003
895,0.9845203019905353
896,7.200000000000003
897,0.3630900851717581
898,15.289292502272124
899,18.139689333333334
900,14.218884080194453
901,18.139689333333334
902,14.218884080194453
903,18.139689333333334
904,14.218884080194453
905,18.139689333333334
906,32.49198061856637
907,6.6331103876418819
908,7.200000000000003
909,1.591245142873714
910,7.200000000000003
911,0.49003010146896355
912,36.35321556249385
913,36.58306733333333
914,34.16004647212473
915,36.58306733333333
916,34.16004647212473
917,36.58306733333333
918,34.16004647212473
919,36.58306733333333
920,26.312859715338904
921,1.9390364000000003
922,16.63523187679381
923,1.9390364000000003
924,17.069284370045417
925,36.91579262976305
926,9.247609079034222
927,0.3630900851717581
646,0.3333333333333333
648,0.3333333333333333
2,1, 1, 1, 0, 1, 0.00,60.00,Tuesday
133,13207.289342673143
134,9489.810673259486
135,2269.7100015932624
136,13936.849545599995
137,10219.334400000002
138,2269.7100015932624
139,24966.810017525895
173,3.463248684927965
174,14.607373597925044
175,7.537130084736319
176,0.6311691806509417
177,22.423271166677944
178,0.10334618261671783
179,1.0
180,0.0
181,0.0
182,0.0
183,0.0
184,0.0
185,1.0
186,0.0
187,0.0
188,0.0
189,0.0
190,0.0
191,-19.368830819349058
192,13207.289342673143
193,9489.810673259486
194,2269.7100015932624
195,13936.849545599995
196,10219.334400000002
197,2269.7100015932624
198,24966.810017525895
199,40092.493547810234
200,35944.431822219136
201,7603.692537002935
202,15546.354479999996
203,11399.520000000002
204,7603.692537002935
205,83640.61790703231
209,12.423483673115353
210,26.842342047928793
211,5.68610019481601
212,0.2891109204125858
213,34.27408874549637
214,0.08136534532814266
215,1.0
216,0.25
217,0.0
218,0.0
219,0.0
220,0.0
221,1.0
222,0.4400030866867439
223,0.0
224,0.0
225,0.0
226,0.0
227,-19.710889079587415
228,40092.493547810234
229,35944.431822219136
230,7603.692537002935
231,15546.354479999996
232,11399.520000000002
233,7603.692537002935
234,83640.61790703231
315,20.0
316,23.0
352,20.0
353,23.0
387,0.0
388,0.0
422,0.0
423,0.0
525,0.0
526,0.0
527,0.25
528,0.0
529,0.0
530,0.0
531,1.0
532,0.0
533,0.0
534,0.0
535,0.0
536,0.0
537,0.0
538,0.0
539,0.0
540,0.0
314,4.0
351,4.0
386,0.0
421,0.0
517,108635.82792455821
518,3289.5479119402407
519,111925.37583649843
520,0.0
521,0.016666666666666668
522,0.016666666666666668
523,0.03333333333333333
524,0.06666666666666667
541,0.40007663956011665
542,0.4
543,0.8097358107595077
544,0.9182809814108014
545,0.4
546,0.571745736663116
605,1023.6052835804381
606,0.3879339307341123
607,921.2447552223941
608,3684979.0208895776
639,2.4957186223763978
640,2157.5266066664117
641,0.2964671347405903
642,1941.7739459997708
643,7767095.783999082
644,6.417880962818187
766,0.9284784033031492
788,10.20487117154709
789,10.151449555096996
790,1.0629334766670995
802,9.924676836563153
803,9.92468652126823
2,1, 1, 1, 0, 2, 0.00,15.00,Tuesday
6,7.2
239,1.0212922334219757
312,24.311939042853298
313,38.31678560161304
349,42.050285066278409
350,13.664802557071564
599,0.0
600,0.0
603,1.5652542001220509
604,1.5652542001210295
645,0.19228129889136484
647,0.069019558377324
649,0.32666666666666668
650,0.3733333333333333
662,195.51161404977737
663,0.0
726,3.0025204600078254
727,0.0
730,9.900041941810155
731,0.0029771316841792668
734,2.9181302199964005
735,0.004352553182318493
737,0.0
739,0.0
741,0.0
743,0.0
892,15.335370245604839
893,2.5944546
894,7.200000000000003
895,1.0943166186401193
896,7.200000000000003
897,1.4841067648577596
898,15.376688586954379
899,16.585131666666667
900,13.589221935333189
901,16.585131666666667
902,13.589221935333189
903,16.585131666666667
904,13.589221935333189
905,16.585131666666667
906,32.00233316708998
907,6.641205080650144
908,7.200000000000003
909,1.1993337351702325
910,7.200000000000003
911,0.4320214496232793
912,35.229586473120679
913,35.6390036
914,33.21586774881622
915,35.6390036
916,33.21586774881622
917,35.6390036
918,33.21564265685506
919,35.6390036
920,24.51830661913493
921,2.5944546
922,16.922591452138876
923,2.5944546
924,17.30176080259734
925,36.35961215317797
926,8.900845011807628
927,1.4841067648577596
646,0.3333333333333333
648,0.3333333333333333
2,1, 1, 1, 0, 2,15.00,30.00,Tuesday
6,7.2
239,1.0311876698284624
312,23.696860644311707
313,38.0097897072624
349,46.23818138184638
350,10.79373928969468
599,0.0
600,0.0
603,25.447879936351457
604,25.44787993635556
645,0.11809785248179539
647,0.05974795930194352
649,0.35
650,0.4083333333333333
662,8.756840827590289
663,0.0
726,5.779997237178313
727,0.0
730,5.0
731,0.0010119687217497636
734,3.084544400868112
735,0.003803883494407638
737,0.0
739,0.0
741,0.0
743,0.0
892,14.970842446269807
893,2.494958833333333
894,7.199999999999998
895,1.2784929924233215
896,7.199999999999998
897,0.41041237378079317
898,14.822493338168322
899,17.167235833333334
900,13.90673442131069
901,17.167235833333334
902,13.90673442131069
903,17.167235833333334
904,13.90673442131069
905,17.167235833333334
906,32.66162081559502
907,6.610853856639128
908,7.199999999999998
909,1.6866073394068222
910,7.199999999999998
911,0.4185539850998265
912,35.18104804463036
913,34.76780983333333
914,33.31867770272845
915,34.76780983333333
916,33.31867770272845
917,34.76780983333333
918,33.31509751204753
919,34.76780983333333
920,23.711405761942755
921,2.494958833333333
922,15.34198843752447
923,2.494958833333333
924,15.721673298284767
925,36.18344252255394
926,9.02422122751702
927,