Program Version,EnergyPlus, Version 8.8.0-Unknown, YMD=2019.07.16 14:30
1,5,Environment Title[],Latitude[deg],Longitude[deg],Time Zone[],Elevation[m]
2,6,Day of Simulation[],Month[],Day of Month[],DST Indicator[1=yes 0=no],Hour[],StartMinute[],EndMinute[],DayType
3,3,Cumulative Day of Simulation[],Month[],Day of Month[],DST Indicator[1=yes 0=no],DayType  ! When Daily Report Variables Requested
4,2,Cumulative Days of Simulation[],Month[]  ! When Monthly Report Variables Requested
5,1,Cumulative Days of Simulation[] ! When Run Period Report Variables Requested
6,1,Environment,Site Outdoor Air Drybulb Temperature [C] !TimeStep
133,1,WESTDATACENTER_EQUIP,ITE CPU Electric Power [W] !Hourly
134,1,WESTDATACENTER_EQUIP,ITE Fan Electric Power [W] !Hourly
135,1,WESTDATACENTER_EQUIP,ITE UPS Electric Power [W] !Hourly
136,1,WESTDATACENTER_EQUIP,ITE CPU Electric Power at Design Inlet Conditions [W] !Hourly
137,1,WESTDATACENTER_EQUIP,ITE Fan Electric Power at Design Inlet Conditions [W] !Hourly
138,1,WESTDATACENTER_EQUIP,ITE UPS Heat Gain to Zone Rate [W] !Hourly
139,1,WESTDATACENTER_EQUIP,ITE Total Heat Gain to Zone Rate [W] !Hourly
173,1,WESTDATACENTER_EQUIP,ITE Standard Density Air Volume Flow Rate [m3/s] !Hourly
174,1,WESTDATACENTER_EQUIP,ITE Air Inlet Dry-Bulb Temperature [C] !Hourly
175,1,WESTDATACENTER_EQUIP,ITE Air Inlet Dewpoint Temperature [C] !Hourly
176,1,WESTDATACENTER_EQUIP,ITE Air Inlet Relative Humidity [%] !Hourly
177,1,WESTDATACENTER_EQUIP,ITE Air Outlet Dry-Bulb Temperature [C] !Hourly
178,1,WESTDATACENTER_EQUIP,ITE Supply Heat Index [] !Hourly
179,1,WESTDATACENTER_EQUIP,ITE Air Inlet Operating Range Exceeded Time [hr] !Hourly
180,1,WESTDATACENTER_EQUIP,ITE Air Inlet Dry-Bulb Temperature Above Operating Range Time [hr] !Hourly
181,1,WESTDATACENTER_EQUIP,ITE Air Inlet Dry-Bulb Temperature Below Operating Range Time [hr] !Hourly
182,1,WESTDATACENTER_EQUIP,ITE Air Inlet Dewpoint Temperature Above Operating Range Time [hr] !Hourly
183,1,WESTDATACENTER_EQUIP,ITE Air Inlet Dewpoint Temperature Below Operating Range Time [hr] !Hourly
184,1,WESTDATACENTER_EQUIP,ITE Air Inlet Relative Humidity Above Operating Range Time [hr] !Hourly
185,1,WESTDATACENTER_EQUIP,ITE Air Inlet Relative Humidity Below Operating Range Time [hr] !Hourly
186,1,WESTDATACENTER_EQUIP,ITE Air Inlet Dry-Bulb Temperature Difference Above Operating Range [deltaC] !Hourly
187,1,WESTDATACENTER_EQUIP,ITE Air Inlet Dry-Bulb Temperature Difference Below Operating Range [deltaC] !Hourly
188,1,WESTDATACENTER_EQUIP,ITE Air Inlet Dewpoint Temperature Difference Above Operating Range [deltaC] !Hourly
189,1,WESTDATACENTER_EQUIP,ITE Air Inlet Dewpoint Temperature Difference Below Operating Range [deltaC] !Hourly
190,1,WESTDATACENTER_EQUIP,ITE Air Inlet Relative Humidity Difference Above Operating Range [%] !Hourly
191,1,WESTDATACENTER_EQUIP,ITE Air Inlet Relative Humidity Difference Below Operating Range [%] !Hourly
192,1,WEST ZONE,Zone ITE CPU Electric Power [W] !Hourly
193,1,WEST ZONE,Zone ITE Fan Electric Power [W] !Hourly
194,1,WEST ZONE,Zone ITE UPS Electric Power [W] !Hourly
195,1,WEST ZONE,Zone ITE CPU Electric Power at Design Inlet Conditions [W] !Hourly
196,1,WEST ZONE,Zone ITE Fan Electric Power at Design Inlet Conditions [W] !Hourly
197,1,WEST ZONE,Zone ITE UPS Heat Gain to Zone Rate [W] !Hourly
198,1,WEST ZONE,Zone ITE Total Heat Gain to Zone Rate [W] !Hourly
199,1,EASTDATACENTER_EQUIP,ITE CPU Electric Power [W] !Hourly
200,1,EASTDATACENTER_EQUIP,ITE Fan Electric Power [W] !Hourly
201,1,EASTDATACENTER_EQUIP,ITE UPS Electric Power [W] !Hourly
202,1,EASTDATACENTER_EQUIP,ITE CPU Electric Power at Design Inlet Conditions [W] !Hourly
203,1,EASTDATACENTER_EQUIP,ITE Fan Electric Power at Design Inlet Conditions [W] !Hourly
204,1,EASTDATACENTER_EQUIP,ITE UPS Heat Gain to Zone Rate [W] !Hourly
205,1,EASTDATACENTER_EQUIP,ITE Total Heat Gain to Zone Rate [W] !Hourly
209,1,EASTDATACENTER_EQUIP,ITE Standard Density Air Volume Flow Rate [m3/s] !Hourly
210,1,EASTDATACENTER_EQUIP,ITE Air Inlet Dry-Bulb Temperature [C] !Hourly
211,1,EASTDATACENTER_EQUIP,ITE Air Inlet Dewpoint Temperature [C] !Hourly
212,1,EASTDATACENTER_EQUIP,ITE Air Inlet Relative Humidity [%] !Hourly
213,1,EASTDATACENTER_EQUIP,ITE Air Outlet Dry-Bulb Temperature [C] !Hourly
214,1,EASTDATACENTER_EQUIP,ITE Supply Heat Index [] !Hourly
215,1,EASTDATACENTER_EQUIP,ITE Air Inlet Operating Range Exceeded Time [hr] !Hourly
216,1,EASTDATACENTER_EQUIP,ITE Air Inlet Dry-Bulb Temperature Above Operating Range Time [hr] !Hourly
217,1,EASTDATACENTER_EQUIP,ITE Air Inlet Dry-Bulb Temperature Below Operating Range Time [hr] !Hourly
218,1,EASTDATACENTER_EQUIP,ITE Air Inlet Dewpoint Temperature Above Operating Range Time [hr] !Hourly
219,1,EASTDATACENTER_EQUIP,ITE Air Inlet Dewpoint Temperature Below Operating Range Time [hr] !Hourly
220,1,EASTDATACENTER_EQUIP,ITE Air Inlet Relative Humidity Above Operating Range Time [hr] !Hourly
221,1,EASTDATACENTER_EQUIP,ITE Air Inlet Relative Humidity Below Operating Range Time [hr] !Hourly
222,1,EASTDATACENTER_EQUIP,ITE Air Inlet Dry-Bulb Temperature Difference Above Operating Range [deltaC] !Hourly
223,1,EASTDATACENTER_EQUIP,ITE Air Inlet Dry-Bulb Temperature Difference Below Operating Range [deltaC] !Hourly
224,1,EASTDATACENTER_EQUIP,ITE Air Inlet Dewpoint Temperature Difference Above Operating Range [deltaC] !Hourly
225,1,EASTDATACENTER_EQUIP,ITE Air Inlet Dewpoint Temperature Difference Below Operating Range [deltaC] !Hourly
226,1,EASTDATACENTER_EQUIP,ITE Air Inlet Relative Humidity Difference Above Operating Range [%] !Hourly
227,1,EASTDATACENTER_EQUIP,ITE Air Inlet Relative Humidity Difference Below Operating Range [%] !Hourly
228,1,EAST ZONE,Zone ITE CPU Electric Power [W] !Hourly
229,1,EAST ZONE,Zone ITE Fan Electric Power [W] !Hourly
230,1,EAST ZONE,Zone ITE UPS Electric Power [W] !Hourly
231,1,EAST ZONE,Zone ITE CPU Electric Power at Design Inlet Conditions [W] !Hourly
232,1,EAST ZONE,Zone ITE Fan Electric Power at Design Inlet Conditions [W] !Hourly
233,1,EAST ZONE,Zone ITE UPS Heat Gain to Zone Rate [W] !Hourly
234,1,EAST ZONE,Zone ITE Total Heat Gain to Zone Rate [W] !Hourly
239,1,EMS,Power Utilization Effectiveness [] !TimeStep
312,1,WEST ZONE,Zone Air Temperature [C] !TimeStep
313,1,WEST ZONE,Zone Air Relative Humidity [%] !TimeStep
314,1,WEST ZONE,Zone Thermostat Control Type [] !Hourly
315,1,WEST ZONE,Zone Thermostat Heating Setpoint Temperature [C] !Hourly
316,1,WEST ZONE,Zone Thermostat Cooling Setpoint Temperature [C] !Hourly
349,1,EAST ZONE,Zone Air Temperature [C] !TimeStep
350,1,EAST ZONE,Zone Air Relative Humidity [%] !TimeStep
351,1,EAST ZONE,Zone Thermostat Control Type [] !Hourly
352,1,EAST ZONE,Zone Thermostat Heating Setpoint Temperature [C] !Hourly
353,1,EAST ZONE,Zone Thermostat Cooling Setpoint Temperature [C] !Hourly
386,1,WEST PLENUM,Zone Thermostat Control Type [] !Hourly
387,1,WEST PLENUM,Zone Thermostat Heating Setpoint Temperature [C] !Hourly
388,1,WEST PLENUM,Zone Thermostat Cooling Setpoint Temperature [C] !Hourly
421,1,EAST PLENUM,Zone Thermostat Control Type [] !Hourly
422,1,EAST PLENUM,Zone Thermostat Heating Setpoint Temperature [C] !Hourly
423,1,EAST PLENUM,Zone Thermostat Cooling Setpoint Temperature [C] !Hourly
517,1,Whole Building,Facility Total Building Electric Demand Power [W] !Hourly
518,1,Whole Building,Facility Total HVAC Electric Demand Power [W] !Hourly
519,1,Whole Building,Facility Total Electric Demand Power [W] !Hourly
520,1,WEST ZONE,Zone Oscillating Temperatures Time [hr] !Hourly
521,1,EAST ZONE,Zone Oscillating Temperatures Time [hr] !Hourly
522,1,WEST PLENUM,Zone Oscillating Temperatures Time [hr] !Hourly
523,1,EAST PLENUM,Zone Oscillating Temperatures Time [hr] !Hourly
524,1,Facility,Facility Any Zone Oscillating Temperatures Time [hr] !Hourly
525,1,WEST ZONE,Zone Heating Setpoint Not Met Time [hr] !Hourly
526,1,WEST ZONE,Zone Heating Setpoint Not Met While Occupied Time [hr] !Hourly
527,1,WEST ZONE,Zone Cooling Setpoint Not Met Time [hr] !Hourly
528,1,WEST ZONE,Zone Cooling Setpoint Not Met While Occupied Time [hr] !Hourly
529,1,EAST ZONE,Zone Heating Setpoint Not Met Time [hr] !Hourly
530,1,EAST ZONE,Zone Heating Setpoint Not Met While Occupied Time [hr] !Hourly
531,1,EAST ZONE,Zone Cooling Setpoint Not Met Time [hr] !Hourly
532,1,EAST ZONE,Zone Cooling Setpoint Not Met While Occupied Time [hr] !Hourly
533,1,WEST PLENUM,Zone Heating Setpoint Not Met Time [hr] !Hourly
534,1,WEST PLENUM,Zone Heating Setpoint Not Met While Occupied Time [hr] !Hourly
535,1,WEST PLENUM,Zone Cooling Setpoint Not Met Time [hr] !Hourly
536,1,WEST PLENUM,Zone Cooling Setpoint Not Met While Occupied Time [hr] !Hourly
537,1,EAST PLENUM,Zone Heating Setpoint Not Met Time [hr] !Hourly
538,1,EAST PLENUM,Zone Heating Setpoint Not Met While Occupied Time [hr] !Hourly
539,1,EAST PLENUM,Zone Cooling Setpoint Not Met Time [hr] !Hourly
540,1,EAST PLENUM,Zone Cooling Setpoint Not Met While Occupied Time [hr] !Hourly
541,1,WEST ZONE VAV SYSTEM,Zone Air Terminal VAV Damper Position [] !Hourly
542,1,WEST ZONE VAV SYSTEM,Zone Air Terminal Minimum Air Flow Fraction [] !Hourly
543,1,WEST ZONE VAV SYSTEM,Zone Air Terminal Outdoor Air Volume Flow Rate [m3/s] !Hourly
544,1,EAST ZONE VAV SYSTEM,Zone Air Terminal VAV Damper Position [] !Hourly
545,1,EAST ZONE VAV SYSTEM,Zone Air Terminal Minimum Air Flow Fraction [] !Hourly
546,1,EAST ZONE VAV SYSTEM,Zone Air Terminal Outdoor Air Volume Flow Rate [m3/s] !Hourly
599,1,WEST ZONE CW COOLING COIL,Cooling Coil Total Cooling Rate [W] !TimeStep
600,1,WEST ZONE CW COOLING COIL,Cooling Coil Sensible Cooling Rate [W] !TimeStep
603,1,EAST ZONE CW COOLING COIL,Cooling Coil Total Cooling Rate [W] !TimeStep
604,1,EAST ZONE CW COOLING COIL,Cooling Coil Sensible Cooling Rate [W] !TimeStep
605,1,WEST ZONE SUPPLY FAN,Fan Electric Power [W] !Hourly
606,1,WEST ZONE SUPPLY FAN,Fan Rise in Air Temperature [deltaC] !Hourly
607,1,WEST ZONE SUPPLY FAN,Fan Heat Gain to Air [W] !Hourly
608,1,WEST ZONE SUPPLY FAN,Fan Electric Energy [J] !Hourly
639,1,WEST ZONE SUPPLY FAN,Fan Air Mass Flow Rate [kg/s] !Hourly
640,1,EAST ZONE SUPPLY FAN,Fan Electric Power [W] !Hourly
641,1,EAST ZONE SUPPLY FAN,Fan Rise in Air Temperature [deltaC] !Hourly
642,1,EAST ZONE SUPPLY FAN,Fan Heat Gain to Air [W] !Hourly
643,1,EAST ZONE SUPPLY FAN,Fan Electric Energy [J] !Hourly
644,1,EAST ZONE SUPPLY FAN,Fan Air Mass Flow Rate [kg/s] !Hourly
645,1,WEST DATA CENTER IEC,Evaporative Cooler Total Stage Effectiveness [] !TimeStep
646,1,WEST DATA CENTER IEC,Evaporative Cooler Operating Mode Status [] !TimeStep
647,1,EAST DATA CENTER IEC,Evaporative Cooler Total Stage Effectiveness [] !TimeStep
648,1,EAST DATA CENTER IEC,Evaporative Cooler Operating Mode Status [] !TimeStep
649,1,WEST DATA CENTER DEC,Evaporative Cooler Stage Effectiveness [] !TimeStep
650,1,EAST DATA CENTER DEC,Evaporative Cooler Stage Effectiveness [] !TimeStep
662,1,WEST DATA CENTER IEC,Evaporative Cooler Electric Power [W] !TimeStep
663,1,WEST DATA CENTER IEC,Evaporative Cooler Water Volume [m3] !TimeStep
726,1,EAST DATA CENTER IEC,Evaporative Cooler Electric Power [W] !TimeStep
727,1,EAST DATA CENTER IEC,Evaporative Cooler Water Volume [m3] !TimeStep
730,1,WEST DATA CENTER DEC,Evaporative Cooler Electric Power [W] !TimeStep
731,1,WEST DATA CENTER DEC,Evaporative Cooler Water Volume [m3] !TimeStep
734,1,EAST DATA CENTER DEC,Evaporative Cooler Electric Power [W] !TimeStep
735,1,EAST DATA CENTER DEC,Evaporative Cooler Water Volume [m3] !TimeStep
737,1,WEST DX COOLING COIL,Cooling Coil Total Cooling Rate [W] !TimeStep
739,1,WEST DX COOLING COIL,Cooling Coil Sensible Cooling Rate [W] !TimeStep
741,1,EAST DX COOLING COIL,Cooling Coil Total Cooling Rate [W] !TimeStep
743,1,EAST DX COOLING COIL,Cooling Coil Sensible Cooling Rate [W] !TimeStep
766,1,CHILLER,Chiller Evaporator Cooling Rate [W] !Hourly
788,1,CHILLER,Chiller Evaporator Inlet Temperature [C] !Hourly
789,1,CHILLER,Chiller Evaporator Outlet Temperature [C] !Hourly
790,1,CHILLER,Chiller Condenser Heat Transfer Rate [W] !Hourly
802,1,CHILLER,Chiller Condenser Inlet Temperature [C] !Hourly
803,1,CHILLER,Chiller Condenser Outlet Temperature [C] !Hourly
892,1,WEST ZONE INLET NODE,System Node Temperature [C] !TimeStep
893,1,WEST ZONE INLET NODE,System Node Mass Flow Rate [kg/s] !TimeStep
894,1,WEST OUTSIDE AIR INLET NODE,System Node Temperature [C] !TimeStep
895,1,WEST OUTSIDE AIR INLET NODE,System Node Mass Flow Rate [kg/s] !TimeStep
896,1,WEST IEC SECONDARY AIR INLET NODE,System Node Temperature [C] !TimeStep
897,1,WEST IEC SECONDARY AIR INLET NODE,System Node Mass Flow Rate [kg/s] !TimeStep
898,1,WEST ZONE DEC OUTLET NODE,System Node Temperature [C] !TimeStep
899,1,WEST ZONE DEC OUTLET NODE,System Node Setpoint Temperature [C] !TimeStep
900,1,WEST ZONE IEC OUTLET NODE,System Node Temperature [C] !TimeStep
901,1,WEST ZONE IEC OUTLET NODE,System Node Setpoint Temperature [C] !TimeStep
902,1,WEST ZONE CCOIL AIR OUTLET NODE,System Node Temperature [C] !TimeStep
903,1,WEST ZONE CCOIL AIR OUTLET NODE,System Node Setpoint Temperature [C] !TimeStep
904,1,WEST AIR LOOP OUTLET NODE,System Node Temperature [C] !TimeStep
905,1,WEST AIR LOOP OUTLET NODE,System Node Setpoint Temperature [C] !TimeStep
906,1,EAST ZONE INLET NODE,System Node Temperature [C] !TimeStep
907,1,EAST ZONE INLET NODE,System Node Mass Flow Rate [kg/s] !TimeStep
908,1,EAST OUTSIDE AIR INLET NODE,System Node Temperature [C] !TimeStep
909,1,EAST OUTSIDE AIR INLET NODE,System Node Mass Flow Rate [kg/s] !TimeStep
910,1,EAST IEC SECONDARY AIR INLET NODE,System Node Temperature [C] !TimeStep
911,1,EAST IEC SECONDARY AIR INLET NODE,System Node Mass Flow Rate [kg/s] !TimeStep
912,1,EAST ZONE DEC OUTLET NODE,System Node Temperature [C] !TimeStep
913,1,EAST ZONE DEC OUTLET NODE,System Node Setpoint Temperature [C] !TimeStep
914,1,EAST ZONE IEC OUTLET NODE,System Node Temperature [C] !TimeStep
915,1,EAST ZONE IEC OUTLET NODE,System Node Setpoint Temperature [C] !TimeStep
916,1,EAST ZONE CCOIL AIR OUTLET NODE,System Node Temperature [C] !TimeStep
917,1,EAST ZONE CCOIL AIR OUTLET NODE,System Node Setpoint Temperature [C] !TimeStep
918,1,EAST AIR LOOP OUTLET NODE,System Node Temperature [C] !TimeStep
919,1,EAST AIR LOOP OUTLET NODE,System Node Setpoint Temperature [C] !TimeStep
920,1,WEST ZONE RETURN AIR NODE,System Node Temperature [C] !TimeStep
921,1,WEST ZONE RETURN AIR NODE,System Node Mass Flow Rate [kg/s] !TimeStep
922,1,WEST ZONE MIXED AIR NODE,System Node Temperature [C] !TimeStep
923,1,WEST ZONE MIXED AIR NODE,System Node Mass Flow Rate [kg/s] !TimeStep
924,1,WEST ZONE SUPPLY FAN OUTLET NODE,System Node Temperature [C] !TimeStep
925,1,EAST ZONE SUPPLY FAN OUTLET NODE,System Node Temperature [C] !TimeStep
926,1,WEST IEC SECONDARY AIR OUTLET NODE,System Node Temperature [C] !TimeStep
927,1,WEST IEC SECONDARY AIR OUTLET NODE,System Node Mass Flow Rate [kg/s] !TimeStep
End of Data Dictionary
1,WHOLEYEARDAY,  37.62,-122.40,  -8.00,   2.00
2,1, 1, 1, 0, 1, 0.00,15.00,Tuesday
6,6.825
239,1.0300298866314462
312,23.39523321431139
313,29.543029199447728
349,23.84338622829085
350,27.321493270818274
599,0.0
600,0.0
603,0.0
604,0.0
645,0.06430319978462265
647,0.0
649,0.5599999999999998
650,0.6999999999999997
662,3.9958038982118606
663,0.0
726,0.0
727,0.0
730,3.2761760587951969
731,0.0015394428164382708
734,0.0
735,0.0
737,0.0
739,0.0
741,0.0
743,0.0
892,18.582495742106234
893,4.0170454
894,6.825
895,0.6457675227952797
896,6.825
897,0.3186938186013834
898,19.99947451442049
899,23.418159799999999
900,19.522905303107956
901,23.418159799999999
902,19.522905303107956
903,23.418159799999999
904,19.522905303107956
905,23.418159799999999
906,21.9907623781345
907,6.808044396964201
908,6.825
909,0.00947176410013612
910,6.825
911,0.0
912,23.918037305755026
913,35.72749253333333
914,23.918037305755026
915,35.72749253333333
916,23.918037305755026
917,35.72749253333333
918,23.918037305755026
919,35.72749253333333
920,23.485655170240525
921,4.0170454
922,20.50628737823745
923,4.0170454
924,20.831418000524516
925,23.918037305755026
926,8.19146117210407
927,0.3186938186013834
646,0.2
648,0.0
2,1, 1, 1, 0, 1,15.00,30.00,Tuesday
6,6.95
239,1.0947927318741267
312,21.77818248882807
313,36.130357785339899
349,33.711782681073277
350,16.8182102504208
599,0.0
600,0.0
603,0.0
604,0.0
645,0.13532679766888998
647,0.011893429355649776
649,0.5599999999999998
650,0.6999999999999997
662,4.297558890296141
663,0.0
726,0.1406771458427019
727,0.0
730,6.461219950653625
731,0.0017714938739871816
734,4.035633457859751
735,0.0063739923709587608
737,0.0
739,0.0
741,0.0
743,0.0
892,18.061847820885516
893,3.1550180666666667
894,6.9499999999999979
895,0.5811863130373308
896,6.9499999999999979
897,0.42571256434199536
898,18.52291094486942
899,24.547908466666667
900,17.40764683685254
901,24.547908466666667
902,17.40764683685254
903,24.547908466666667
904,17.40764683685254
905,24.547908466666667
906,27.751176383126354
907,6.93429369929478
908,6.9499999999999979
909,0.609668592032916
910,6.9499999999999979
911,0.05476324448948685
912,29.06780295855006
913,34.94915626666667
914,28.934570575188788
915,34.94915626666667
916,28.934570575188788
917,34.94915626666667
918,28.934570575188788
919,34.94915626666667
920,21.761304168080025
921,3.1550180666666667
922,19.518447153847249
923,3.1550180666666667
924,19.876345375056255
925,30.717391864554594
926,8.571318056058172
927,0.42571256434199536
646,0.26666666666666669
648,0.06666666666666667
2,1, 1, 1, 0, 1,30.00,45.00,Tuesday
6,7.075
239,1.0370843841408937
312,27.836069141078455
313,29.054849866624968
349,37.720167643765538
350,16.263204637863763
599,0.0
600,0.0
603,0.0
604,0.0
645,0.19146496051729129
647,0.03072415433372821
649,0.5133333333333332
650,0.6533333333333331
662,296.6726559709999
663,0.0
726,8.516034858878382
727,0.0
730,12.711079570333269
731,0.007965582056733124
734,3.4413675696076178
735,0.005202645029247356
737,5088.745953503715
739,242.2925603694631
741,0.0
743,0.0
892,16.685369387058768
893,3.6967451790111798
894,7.075
895,0.8637314144930086
896,7.075
897,2.0792468799917485
898,18.32341551932718
899,22.398139533333337
900,15.926291195177316
901,22.398139533333337
902,15.848801047480729
903,22.398139533333337
904,15.848801047480729
905,22.398139533333337
906,30.267031715117576
907,6.941378565961446
908,7.075
909,0.8957857726324514
910,7.075
911,0.2565938044486351
912,32.4273316560472
913,33.83163746666666
914,31.443284276264728
915,33.83163746666666
916,31.443284276264728
917,33.83163746666666
918,31.443284276264728
919,33.83163746666666
920,27.372901163576509
921,3.6967451790111798
922,21.333285795759676
923,3.6967451790111798
924,21.667750484467406
925,33.77140785974806
926,9.299261960977113
927,2.0792468799917485
646,0.3333333333333333
648,0.06666666666666667
2,1, 1, 1, 0, 1,45.00,60.00,Tuesday
6,7.2
239,1.0248685197832184
312,23.377580178716149
313,42.57055448546339
349,38.30985185495512
350,17.561672450252975
599,0.0
600,0.0
603,0.0
604,0.0
645,0.10623471026615569
647,0.044798696166059418
649,0.5133333333333332
650,0.6066666666666665
662,4.532388430975209
663,0.0
726,8.220810938322508
727,0.0
730,9.442569544730367
731,0.003792733950673276
734,4.318676256026575
735,0.0042621277047040439
737,0.0
739,0.0
741,0.0
743,0.0
892,16.991498117846065
893,3.6173420228389236
894,7.200000000000003
895,0.9521992295967958
896,7.200000000000003
897,0.4347313332490098
898,17.427585969609408
899,20.0379074
900,16.430919824980618
901,20.0379074
902,16.430919824980618
903,20.0379074
904,16.430919824980618
905,20.0379074
906,25.72560178542398
907,6.689671325636374
908,7.200000000000003
909,1.9314332244081094
910,7.200000000000003
911,0.36578398175491147
912,28.48754458537749
913,30.549513866666666
914,27.074135778817177
915,30.549513866666666
916,27.074135778817177
917,30.549513866666666
918,27.074135778817177
919,30.549513866666666
920,23.789924419720138
921,3.6173420228389236
922,18.920710631713665
923,3.6173420228389236
924,19.231902585404997
925,29.597376827065124
926,10.12022150982223
927,0.4347313332490098
646,0.3333333333333333
648,0.13333333333333334
2,1, 1, 1, 0, 1, 0.00,60.00,Tuesday
133,14408.528984363093
134,10690.9902559703
135,2509.951924033339
136,13936.849545599995
137,10219.334400000002
138,2509.951924033339
139,27609.47116436673
173,3.8633823387263455
174,15.253843069059041
175,5.620094364178826
176,0.5461500539460696
177,23.326947141048213
178,0.10355941819448969
179,1.0
180,0.0
181,0.0
182,0.0
183,0.0
184,0.0
185,1.0
186,0.0
187,0.0
188,0.0
189,0.0
190,0.0
191,-19.45384994605393
192,14408.528984363093
193,10690.9902559703
194,2509.951924033339
195,13936.849545599995
196,10219.334400000002
197,2509.951924033339
198,27609.47116436673
199,35048.27354813888
200,30900.464020937845
201,6594.873756907671
202,15546.354479999996
203,11399.520000000002
204,6594.873756907671
205,72543.61132598439
209,10.79402793514134
210,24.408746343280954
211,7.006773194668233
212,0.3506456218887729
213,31.818932469253747
214,0.08215636231463348
215,1.0
216,0.0
217,0.0
218,0.0
219,0.0
220,0.0
221,1.0
222,0.0
223,0.0
224,0.0
225,0.0
226,0.0
227,-19.649354378111228
228,35048.27354813888
229,30900.464020937845
230,6594.873756907671
231,15546.354479999996
232,11399.520000000002
233,6594.873756907671
234,72543.61132598439
315,20.0
316,23.0
352,20.0
353,23.0
387,0.0
388,0.0
422,0.0
423,0.0
525,0.0
526,0.0
527,0.5
528,0.0
529,0.0
530,0.0
531,1.0
532,0.0
533,0.0
534,0.0
535,0.0
536,0.0
537,0.0
538,0.0
539,0.0
540,0.0
314,4.0
351,4.0
386,0.0
421,0.0
517,100181.48249035113
518,4123.973253681955
519,104305.45574403309
520,0.0
521,0.016666666666666668
522,0.016666666666666668
523,0.0
524,0.016666666666666668
541,0.5805512716516941
542,0.4
543,0.6318160035305642
544,0.9791573625179076
545,0.4
546,0.7155923951828271
605,1270.1838934525294
606,0.33217137147378536
607,1143.1655041072765
608,4572662.016429107
639,3.621537667129192
640,2385.918112903921
641,0.3083316582898258
642,2147.3263016135293
643,8589305.206454114
644,6.8433469969642009
766,0.0
788,10.204275065416635
789,10.204275065416635
790,0.0
802,9.932642824349
803,9.932642824349
2,1, 1, 1, 0, 2, 0.00,15.00,Tuesday
6,7.2
239,1.026827480766896
312,25.841495584570287
313,37.01686214344227
349,43.59799696950941
350,12.666747251103489
599,0.0
600,0.0
603,19.694190089972826
604,19.694190089973245
645,0.07154751463795042
647,0.03334749857882075
649,0.5133333333333332
650,0.41999999999999995
662,96.75618005628749
663,0.0
726,2.801970864967114
727,0.0
730,12.255505521061896
731,0.0053399372018336469
734,1.419484113235034
735,0.002121652896462374
737,1589.9196012645216
739,43.09582609977615
741,0.0
743,0.0
892,17.194835268482547
893,3.67345526851677
894,7.200000000000003
895,1.0856649354508237
896,7.200000000000003
897,0.6612613056855085
898,17.674352220160857
899,22.36761693333333
900,17.008266961192378
901,22.36761693333333
902,16.998476758506194
903,22.36761693333333
904,16.998476758506194
905,22.36761693333333
906,31.92549203227283
907,6.556952592303041
908,7.200000000000003
909,1.3990801339403687
910,7.200000000000003
911,0.25002975608549019
912,35.30846075894152
913,35.94892886666667
914,34.21581749229629
915,35.94892886666667
916,34.21581749229629
917,35.94892886666667
918,34.21304884746705
919,35.94892886666667
920,25.54018920019649
921,3.67345526851677
922,19.692469381309697
923,3.67345526851677
924,20.027094647629764
925,35.85707062536112
926,8.580660333327272
927,0.6612613056855085
646,0.2
648,0.13333333333333334
2,1, 1, 1, 0, 2,15.00,30.00,Tuesday
6,7.2
239,1.023068822108288
312,26.42676857632538
313,38.6381555200311
349,41.68942166693229
350,14.237484671864863
599,0.0
600,0.0
603,5174.696199410326
604,660.0947600915669
645,0.10416331223213912
647,0.09424300484443399
649,0.5599999999999998
650,0.46666666666666659
662,4.541751867210459
663,0.0
726,111.5331894636153
727,0.0
730,11.488645245024833
731,0.0037077065071624136
734,5.529605477798598
735,0.00872240149116577
737,0.0
739,0.0
741,0.0
743,0.0
892,19.223769057399964
893,3.673957556172256
894,7.200000000000003
895,1.2264881055937092
896,7.200000000000003
897,0.3660014148057283
898,19.0953511457895
899,22.9652402
900,18.273733539016957
901,22.9652402
902,18.273733539016957
903,22.9652402
904,18.273733539016957
905,22.9652402
906,28.3580144895414
907,6.846022592303042
908,7.200000000000003
909,1.721165708896683
910,7.200000000000003
911,0.9497465465810127
912,31.065265697206045
913,33.6514422
914,28.94322294291154
915,33.6514422
916,28.94322294291154
917,33.6514422
918,28.851297995874029
919,33.6514422
920,26.507567461681754
921,3.673957556172256
922,20.85536826705663
923,3.673957556172256
924,21.191369202439764
925,33.36406400841152