Program Version,EnergyPlus, Version 8.8.0-Unknown, YMD=2019.07.16 14:29
1,5,Environment Title[],Latitude[deg],Longitude[deg],Time Zone[],Elevation[m]
2,6,Day of Simulation[],Month[],Day of Month[],DST Indicator[1=yes 0=no],Hour[],StartMinute[],EndMinute[],DayType
3,3,Cumulative Day of Simulation[],Month[],Day of Month[],DST Indicator[1=yes 0=no],DayType  ! When Daily Report Variables Requested
4,2,Cumulative Days of Simulation[],Month[]  ! When Monthly Report Variables Requested
5,1,Cumulative Days of Simulation[] ! When Run Period Report Variables Requested
6,1,Environment,Site Outdoor Air Drybulb Temperature [C] !TimeStep
133,1,WESTDATACENTER_EQUIP,ITE CPU Electric Power [W] !Hourly
134,1,WESTDATACENTER_EQUIP,ITE Fan Electric Power [W] !Hourly
135,1,WESTDATACENTER_EQUIP,ITE UPS Electric Power [W] !Hourly
136,1,WESTDATACENTER_EQUIP,ITE CPU Electric Power at Design Inlet Conditions [W] !Hourly
137,1,WESTDATACENTER_EQUIP,ITE Fan Electric Power at Design Inlet Conditions [W] !Hourly
138,1,WESTDATACENTER_EQUIP,ITE UPS Heat Gain to Zone Rate [W] !Hourly
139,1,WESTDATACENTER_EQUIP,ITE Total Heat Gain to Zone Rate [W] !Hourly
173,1,WESTDATACENTER_EQUIP,ITE Standard Density Air Volume Flow Rate [m3/s] !Hourly
174,1,WESTDATACENTER_EQUIP,ITE Air Inlet Dry-Bulb Temperature [C] !Hourly
175,1,WESTDATACENTER_EQUIP,ITE Air Inlet Dewpoint Temperature [C] !Hourly
176,1,WESTDATACENTER_EQUIP,ITE Air Inlet Relative Humidity [%] !Hourly
177,1,WESTDATACENTER_EQUIP,ITE Air Outlet Dry-Bulb Temperature [C] !Hourly
178,1,WESTDATACENTER_EQUIP,ITE Supply Heat Index [] !Hourly
179,1,WESTDATACENTER_EQUIP,ITE Air Inlet Operating Range Exceeded Time [hr] !Hourly
180,1,WESTDATACENTER_EQUIP,ITE Air Inlet Dry-Bulb Temperature Above Operating Range Time [hr] !Hourly
181,1,WESTDATACENTER_EQUIP,ITE Air Inlet Dry-Bulb Temperature Below Operating Range Time [hr] !Hourly
182,1,WESTDATACENTER_EQUIP,ITE Air Inlet Dewpoint Temperature Above Operating Range Time [hr] !Hourly
183,1,WESTDATACENTER_EQUIP,ITE Air Inlet Dewpoint Temperature Below Operating Range Time [hr] !Hourly
184,1,WESTDATACENTER_EQUIP,ITE Air Inlet Relative Humidity Above Operating Range Time [hr] !Hourly
185,1,WESTDATACENTER_EQUIP,ITE Air Inlet Relative Humidity Below Operating Range Time [hr] !Hourly
186,1,WESTDATACENTER_EQUIP,ITE Air Inlet Dry-Bulb Temperature Difference Above Operating Range [deltaC] !Hourly
187,1,WESTDATACENTER_EQUIP,ITE Air Inlet Dry-Bulb Temperature Difference Below Operating Range [deltaC] !Hourly
188,1,WESTDATACENTER_EQUIP,ITE Air Inlet Dewpoint Temperature Difference Above Operating Range [deltaC] !Hourly
189,1,WESTDATACENTER_EQUIP,ITE Air Inlet Dewpoint Temperature Difference Below Operating Range [deltaC] !Hourly
190,1,WESTDATACENTER_EQUIP,ITE Air Inlet Relative Humidity Difference Above Operating Range [%] !Hourly
191,1,WESTDATACENTER_EQUIP,ITE Air Inlet Relative Humidity Difference Below Operating Range [%] !Hourly
192,1,WEST ZONE,Zone ITE CPU Electric Power [W] !Hourly
193,1,WEST ZONE,Zone ITE Fan Electric Power [W] !Hourly
194,1,WEST ZONE,Zone ITE UPS Electric Power [W] !Hourly
195,1,WEST ZONE,Zone ITE CPU Electric Power at Design Inlet Conditions [W] !Hourly
196,1,WEST ZONE,Zone ITE Fan Electric Power at Design Inlet Conditions [W] !Hourly
197,1,WEST ZONE,Zone ITE UPS Heat Gain to Zone Rate [W] !Hourly
198,1,WEST ZONE,Zone ITE Total Heat Gain to Zone Rate [W] !Hourly
199,1,EASTDATACENTER_EQUIP,ITE CPU Electric Power [W] !Hourly
200,1,EASTDATACENTER_EQUIP,ITE Fan Electric Power [W] !Hourly
201,1,EASTDATACENTER_EQUIP,ITE UPS Electric Power [W] !Hourly
202,1,EASTDATACENTER_EQUIP,ITE CPU Electric Power at Design Inlet Conditions [W] !Hourly
203,1,EASTDATACENTER_EQUIP,ITE Fan Electric Power at Design Inlet Conditions [W] !Hourly
204,1,EASTDATACENTER_EQUIP,ITE UPS Heat Gain to Zone Rate [W] !Hourly
205,1,EASTDATACENTER_EQUIP,ITE Total Heat Gain to Zone Rate [W] !Hourly
209,1,EASTDATACENTER_EQUIP,ITE Standard Density Air Volume Flow Rate [m3/s] !Hourly
210,1,EASTDATACENTER_EQUIP,ITE Air Inlet Dry-Bulb Temperature [C] !Hourly
211,1,EASTDATACENTER_EQUIP,ITE Air Inlet Dewpoint Temperature [C] !Hourly
212,1,EASTDATACENTER_EQUIP,ITE Air Inlet Relative Humidity [%] !Hourly
213,1,EASTDATACENTER_EQUIP,ITE Air Outlet Dry-Bulb Temperature [C] !Hourly
214,1,EASTDATACENTER_EQUIP,ITE Supply Heat Index [] !Hourly
215,1,EASTDATACENTER_EQUIP,ITE Air Inlet Operating Range Exceeded Time [hr] !Hourly
216,1,EASTDATACENTER_EQUIP,ITE Air Inlet Dry-Bulb Temperature Above Operating Range Time [hr] !Hourly
217,1,EASTDATACENTER_EQUIP,ITE Air Inlet Dry-Bulb Temperature Below Operating Range Time [hr] !Hourly
218,1,EASTDATACENTER_EQUIP,ITE Air Inlet Dewpoint Temperature Above Operating Range Time [hr] !Hourly
219,1,EASTDATACENTER_EQUIP,ITE Air Inlet Dewpoint Temperature Below Operating Range Time [hr] !Hourly
220,1,EASTDATACENTER_EQUIP,ITE Air Inlet Relative Humidity Above Operating Range Time [hr] !Hourly
221,1,EASTDATACENTER_EQUIP,ITE Air Inlet Relative Humidity Below Operating Range Time [hr] !Hourly
222,1,EASTDATACENTER_EQUIP,ITE Air Inlet Dry-Bulb Temperature Difference Above Operating Range [deltaC] !Hourly
223,1,EASTDATACENTER_EQUIP,ITE Air Inlet Dry-Bulb Temperature Difference Below Operating Range [deltaC] !Hourly
224,1,EASTDATACENTER_EQUIP,ITE Air Inlet Dewpoint Temperature Difference Above Operating Range [deltaC] !Hourly
225,1,EASTDATACENTER_EQUIP,ITE Air Inlet Dewpoint Temperature Difference Below Operating Range [deltaC] !Hourly
226,1,EASTDATACENTER_EQUIP,ITE Air Inlet Relative Humidity Difference Above Operating Range [%] !Hourly
227,1,EASTDATACENTER_EQUIP,ITE Air Inlet Relative Humidity Difference Below Operating Range [%] !Hourly
228,1,EAST ZONE,Zone ITE CPU Electric Power [W] !Hourly
229,1,EAST ZONE,Zone ITE Fan Electric Power [W] !Hourly
230,1,EAST ZONE,Zone ITE UPS Electric Power [W] !Hourly
231,1,EAST ZONE,Zone ITE CPU Electric Power at Design Inlet Conditions [W] !Hourly
232,1,EAST ZONE,Zone ITE Fan Electric Power at Design Inlet Conditions [W] !Hourly
233,1,EAST ZONE,Zone ITE UPS Heat Gain to Zone Rate [W] !Hourly
234,1,EAST ZONE,Zone ITE Total Heat Gain to Zone Rate [W] !Hourly
239,1,EMS,Power Utilization Effectiveness [] !TimeStep
312,1,WEST ZONE,Zone Air Temperature [C] !TimeStep
313,1,WEST ZONE,Zone Air Relative Humidity [%] !TimeStep
314,1,WEST ZONE,Zone Thermostat Control Type [] !Hourly
315,1,WEST ZONE,Zone Thermostat Heating Setpoint Temperature [C] !Hourly
316,1,WEST ZONE,Zone Thermostat Cooling Setpoint Temperature [C] !Hourly
349,1,EAST ZONE,Zone Air Temperature [C] !TimeStep
350,1,EAST ZONE,Zone Air Relative Humidity [%] !TimeStep
351,1,EAST ZONE,Zone Thermostat Control Type [] !Hourly
352,1,EAST ZONE,Zone Thermostat Heating Setpoint Temperature [C] !Hourly
353,1,EAST ZONE,Zone Thermostat Cooling Setpoint Temperature [C] !Hourly
386,1,WEST PLENUM,Zone Thermostat Control Type [] !Hourly
387,1,WEST PLENUM,Zone Thermostat Heating Setpoint Temperature [C] !Hourly
388,1,WEST PLENUM,Zone Thermostat Cooling Setpoint Temperature [C] !Hourly
421,1,EAST PLENUM,Zone Thermostat Control Type [] !Hourly
422,1,EAST PLENUM,Zone Thermostat Heating Setpoint Temperature [C] !Hourly
423,1,EAST PLENUM,Zone Thermostat Cooling Setpoint Temperature [C] !Hourly
517,1,Whole Building,Facility Total Building Electric Demand Power [W] !Hourly
518,1,Whole Building,Facility Total HVAC Electric Demand Power [W] !Hourly
519,1,Whole Building,Facility Total Electric Demand Power [W] !Hourly
520,1,WEST ZONE,Zone Oscillating Temperatures Time [hr] !Hourly
521,1,EAST ZONE,Zone Oscillating Temperatures Time [hr] !Hourly
522,1,WEST PLENUM,Zone Oscillating Temperatures Time [hr] !Hourly
523,1,EAST PLENUM,Zone Oscillating Temperatures Time [hr] !Hourly
524,1,Facility,Facility Any Zone Oscillating Temperatures Time [hr] !Hourly
525,1,WEST ZONE,Zone Heating Setpoint Not Met Time [hr] !Hourly
526,1,WEST ZONE,Zone Heating Setpoint Not Met While Occupied Time [hr] !Hourly
527,1,WEST ZONE,Zone Cooling Setpoint Not Met Time [hr] !Hourly
528,1,WEST ZONE,Zone Cooling Setpoint Not Met While Occupied Time [hr] !Hourly
529,1,EAST ZONE,Zone Heating Setpoint Not Met Time [hr] !Hourly
530,1,EAST ZONE,Zone Heating Setpoint Not Met While Occupied Time [hr] !Hourly
531,1,EAST ZONE,Zone Cooling Setpoint Not Met Time [hr] !Hourly
532,1,EAST ZONE,Zone Cooling Setpoint Not Met While Occupied Time [hr] !Hourly
533,1,WEST PLENUM,Zone Heating Setpoint Not Met Time [hr] !Hourly
534,1,WEST PLENUM,Zone Heating Setpoint Not Met While Occupied Time [hr] !Hourly
535,1,WEST PLENUM,Zone Cooling Setpoint Not Met Time [hr] !Hourly
536,1,WEST PLENUM,Zone Cooling Setpoint Not Met While Occupied Time [hr] !Hourly
537,1,EAST PLENUM,Zone Heating Setpoint Not Met Time [hr] !Hourly
538,1,EAST PLENUM,Zone Heating Setpoint Not Met While Occupied Time [hr] !Hourly
539,1,EAST PLENUM,Zone Cooling Setpoint Not Met Time [hr] !Hourly
540,1,EAST PLENUM,Zone Cooling Setpoint Not Met While Occupied Time [hr] !Hourly
541,1,WEST ZONE VAV SYSTEM,Zone Air Terminal VAV Damper Position [] !Hourly
542,1,WEST ZONE VAV SYSTEM,Zone Air Terminal Minimum Air Flow Fraction [] !Hourly
543,1,WEST ZONE VAV SYSTEM,Zone Air Terminal Outdoor Air Volume Flow Rate [m3/s] !Hourly
544,1,EAST ZONE VAV SYSTEM,Zone Air Terminal VAV Damper Position [] !Hourly
545,1,EAST ZONE VAV SYSTEM,Zone Air Terminal Minimum Air Flow Fraction [] !Hourly
546,1,EAST ZONE VAV SYSTEM,Zone Air Terminal Outdoor Air Volume Flow Rate [m3/s] !Hourly
599,1,WEST ZONE CW COOLING COIL,Cooling Coil Total Cooling Rate [W] !TimeStep
600,1,WEST ZONE CW COOLING COIL,Cooling Coil Sensible Cooling Rate [W] !TimeStep
603,1,EAST ZONE CW COOLING COIL,Cooling Coil Total Cooling Rate [W] !TimeStep
604,1,EAST ZONE CW COOLING COIL,Cooling Coil Sensible Cooling Rate [W] !TimeStep
605,1,WEST ZONE SUPPLY FAN,Fan Electric Power [W] !Hourly
606,1,WEST ZONE SUPPLY FAN,Fan Rise in Air Temperature [deltaC] !Hourly
607,1,WEST ZONE SUPPLY FAN,Fan Heat Gain to Air [W] !Hourly
608,1,WEST ZONE SUPPLY FAN,Fan Electric Energy [J] !Hourly
639,1,WEST ZONE SUPPLY FAN,Fan Air Mass Flow Rate [kg/s] !Hourly
640,1,EAST ZONE SUPPLY FAN,Fan Electric Power [W] !Hourly
641,1,EAST ZONE SUPPLY FAN,Fan Rise in Air Temperature [deltaC] !Hourly
642,1,EAST ZONE SUPPLY FAN,Fan Heat Gain to Air [W] !Hourly
643,1,EAST ZONE SUPPLY FAN,Fan Electric Energy [J] !Hourly
644,1,EAST ZONE SUPPLY FAN,Fan Air Mass Flow Rate [kg/s] !Hourly
645,1,WEST DATA CENTER IEC,Evaporative Cooler Total Stage Effectiveness [] !TimeStep
646,1,WEST DATA CENTER IEC,Evaporative Cooler Operating Mode Status [] !TimeStep
647,1,EAST DATA CENTER IEC,Evaporative Cooler Total Stage Effectiveness [] !TimeStep
648,1,EAST DATA CENTER IEC,Evaporative Cooler Operating Mode Status [] !TimeStep
649,1,WEST DATA CENTER DEC,Evaporative Cooler Stage Effectiveness [] !TimeStep
650,1,EAST DATA CENTER DEC,Evaporative Cooler Stage Effectiveness [] !TimeStep
662,1,WEST DATA CENTER IEC,Evaporative Cooler Electric Power [W] !TimeStep
663,1,WEST DATA CENTER IEC,Evaporative Cooler Water Volume [m3] !TimeStep
726,1,EAST DATA CENTER IEC,Evaporative Cooler Electric Power [W] !TimeStep
727,1,EAST DATA CENTER IEC,Evaporative Cooler Water Volume [m3] !TimeStep
730,1,WEST DATA CENTER DEC,Evaporative Cooler Electric Power [W] !TimeStep
731,1,WEST DATA CENTER DEC,Evaporative Cooler Water Volume [m3] !TimeStep
734,1,EAST DATA CENTER DEC,Evaporative Cooler Electric Power [W] !TimeStep
735,1,EAST DATA CENTER DEC,Evaporative Cooler Water Volume [m3] !TimeStep
737,1,WEST DX COOLING COIL,Cooling Coil Total Cooling Rate [W] !TimeStep
739,1,WEST DX COOLING COIL,Cooling Coil Sensible Cooling Rate [W] !TimeStep
741,1,EAST DX COOLING COIL,Cooling Coil Total Cooling Rate [W] !TimeStep
743,1,EAST DX COOLING COIL,Cooling Coil Sensible Cooling Rate [W] !TimeStep
766,1,CHILLER,Chiller Evaporator Cooling Rate [W] !Hourly
788,1,CHILLER,Chiller Evaporator Inlet Temperature [C] !Hourly
789,1,CHILLER,Chiller Evaporator Outlet Temperature [C] !Hourly
790,1,CHILLER,Chiller Condenser Heat Transfer Rate [W] !Hourly
802,1,CHILLER,Chiller Condenser Inlet Temperature [C] !Hourly
803,1,CHILLER,Chiller Condenser Outlet Temperature [C] !Hourly
892,1,WEST ZONE INLET NODE,System Node Temperature [C] !TimeStep
893,1,WEST ZONE INLET NODE,System Node Mass Flow Rate [kg/s] !TimeStep
894,1,WEST OUTSIDE AIR INLET NODE,System Node Temperature [C] !TimeStep
895,1,WEST OUTSIDE AIR INLET NODE,System Node Mass Flow Rate [kg/s] !TimeStep
896,1,WEST IEC SECONDARY AIR INLET NODE,System Node Temperature [C] !TimeStep
897,1,WEST IEC SECONDARY AIR INLET NODE,System Node Mass Flow Rate [kg/s] !TimeStep
898,1,WEST ZONE DEC OUTLET NODE,System Node Temperature [C] !TimeStep
899,1,WEST ZONE DEC OUTLET NODE,System Node Setpoint Temperature [C] !TimeStep
900,1,WEST ZONE IEC OUTLET NODE,System Node Temperature [C] !TimeStep
901,1,WEST ZONE IEC OUTLET NODE,System Node Setpoint Temperature [C] !TimeStep
902,1,WEST ZONE CCOIL AIR OUTLET NODE,System Node Temperature [C] !TimeStep
903,1,WEST ZONE CCOIL AIR OUTLET NODE,System Node Setpoint Temperature [C] !TimeStep
904,1,WEST AIR LOOP OUTLET NODE,System Node Temperature [C] !TimeStep
905,1,WEST AIR LOOP OUTLET NODE,System Node Setpoint Temperature [C] !TimeStep
906,1,EAST ZONE INLET NODE,System Node Temperature [C] !TimeStep
907,1,EAST ZONE INLET NODE,System Node Mass Flow Rate [kg/s] !TimeStep
908,1,EAST OUTSIDE AIR INLET NODE,System Node Temperature [C] !TimeStep
909,1,EAST OUTSIDE AIR INLET NODE,System Node Mass Flow Rate [kg/s] !TimeStep
910,1,EAST IEC SECONDARY AIR INLET NODE,System Node Temperature [C] !TimeStep
911,1,EAST IEC SECONDARY AIR INLET NODE,System Node Mass Flow Rate [kg/s] !TimeStep
912,1,EAST ZONE DEC OUTLET NODE,System Node Temperature [C] !TimeStep
913,1,EAST ZONE DEC OUTLET NODE,System Node Setpoint Temperature [C] !TimeStep
914,1,EAST ZONE IEC OUTLET NODE,System Node Temperature [C] !TimeStep
915,1,EAST ZONE IEC OUTLET NODE,System Node Setpoint Temperature [C] !TimeStep
916,1,EAST ZONE CCOIL AIR OUTLET NODE,System Node Temperature [C] !TimeStep
917,1,EAST ZONE CCOIL AIR OUTLET NODE,System Node Setpoint Temperature [C] !TimeStep
918,1,EAST AIR LOOP OUTLET NODE,System Node Temperature [C] !TimeStep
919,1,EAST AIR LOOP OUTLET NODE,System Node Setpoint Temperature [C] !TimeStep
920,1,WEST ZONE RETURN AIR NODE,System Node Temperature [C] !TimeStep
921,1,WEST ZONE RETURN AIR NODE,System Node Mass Flow Rate [kg/s] !TimeStep
922,1,WEST ZONE MIXED AIR NODE,System Node Temperature [C] !TimeStep
923,1,WEST ZONE MIXED AIR NODE,System Node Mass Flow Rate [kg/s] !TimeStep
924,1,WEST ZONE SUPPLY FAN OUTLET NODE,System Node Temperature [C] !TimeStep
925,1,EAST ZONE SUPPLY FAN OUTLET NODE,System Node Temperature [C] !TimeStep
926,1,WEST IEC SECONDARY AIR OUTLET NODE,System Node Temperature [C] !TimeStep
927,1,WEST IEC SECONDARY AIR OUTLET NODE,System Node Mass Flow Rate [kg/s] !TimeStep
End of Data Dictionary
1,WHOLEYEARDAY,  37.62,-122.40,  -8.00,   2.00
2,1, 1, 1, 0, 1, 0.00,15.00,Tuesday
6,6.825
239,1.0300298866314462
312,21.65575083782577
313,35.050171731904608
349,22.577392755280468
350,31.005309016687705
599,0.0
600,0.0
603,0.0
604,0.0
645,0.1367485556706403
647,0.012085708343111977
649,0.5133333333333332
650,0.6533333333333331
662,5.144103161400027
663,0.0
726,0.2631715923861673
727,0.0
730,8.426810724718895
731,0.0026355112732007618
734,4.02000372356658
735,0.0038739288550610807
737,0.0
739,0.0
741,0.0
743,0.0
892,15.38794681489393
893,3.191619933333333
894,6.825
895,0.7885330631840609
896,6.825
897,0.40967518035176717
898,16.930756645387299
899,24.9772076
900,15.764425110183515
901,24.9772076
902,15.764425110183515
903,24.9772076
904,15.764425110183515
905,24.9772076
906,19.531673490894496
907,6.98414869929478
908,6.825
909,0.534890795781028
910,6.825
911,0.0681477892465667
912,20.716964565670354
913,30.532310066666665
914,20.622735881261027
915,30.532310066666665
916,20.622735881261027
917,30.532310066666665
918,20.622735881261027
919,30.532310066666665
920,21.691945631290364
921,3.191619933333333
922,18.375675356988795
923,3.191619933333333
924,18.738895266822494
925,21.72305136658132
926,8.66489897398945
927,0.40967518035176717
646,0.26666666666666669
648,0.06666666666666667
2,1, 1, 1, 0, 1,15.00,30.00,Tuesday
6,6.95
239,1.0931183896362545
312,25.650977778013883
313,32.831972744367387
349,27.32717973720093
350,27.579766718429484
599,0.0
600,0.0
603,3358.73644073779
604,380.2775166492309
645,0.23950389763902486
647,0.047955742357245107
649,0.3733333333333333
650,0.6533333333333331
662,120.27229182549137
663,0.0
726,108.3547585160584
727,0.0
730,13.155443928299578
731,0.0066039845403363778
734,4.511963999012488
735,0.005122561086661785
737,1677.6264214863497
739,110.58505504869822
741,0.0
743,0.0
892,14.226953728472433
893,3.5205196895055899
894,6.9499999999999979
895,1.2658061230144485
896,6.9499999999999979
897,1.5157473379959073
898,15.227013897213965
899,20.321618999999996
900,12.731316223378676
901,20.321618999999996
902,12.707658148504589
903,20.321618999999996
904,12.707658148504589
905,20.321618999999996
906,22.86368645630738
907,6.91955249929478
908,6.9499999999999979
909,0.9219402574031905
910,6.9499999999999979
911,0.6829820928573129
912,23.0705372058838
913,30.661685666666668
914,22.41320196371903
915,30.661685666666668
916,22.41320196371903
917,30.661685666666668
918,22.36006246546769
919,30.661685666666668
920,25.424765445415475
921,3.5205196895055899
922,17.98198659285996
923,3.5205196895055899
924,18.30524287385462
925,24.39496210917329
926,10.473634884755662
927,1.5157473379959073
646,0.4666666666666666
648,0.06666666666666667
2,1, 1, 1, 0, 1,30.00,45.00,Tuesday
6,7.075
239,1.0368901281774026
312,23.406766226476074
313,40.00485585089087
349,28.43518847991961
350,28.154327352968556
599,0.0
600,0.0
603,0.0
604,0.0
645,0.0742109666137279
647,0.0
649,0.5133333333333332
650,0.6999999999999997
662,4.038551920603915
663,0.0
726,0.0
727,0.0
730,8.50925513234761
731,0.0031550671062529147
734,1.2415137185045103
735,0.0013377025021640093
737,0.0
739,0.0
741,0.0
743,0.0
892,16.69040131673396
893,3.64760788950559
894,7.075
895,1.23007492768534
896,7.075
897,0.30259207367757676
898,16.847937855792698
899,20.573778133333336
900,16.245467543940494
901,20.573778133333336
902,16.245467543940494
903,20.573778133333336
904,16.245467543940494
905,20.573778133333336
906,25.623101721184498
907,6.9343811659614469
908,7.075
909,0.1143943155665777
910,7.075
911,0.0
912,27.80529799516895
913,36.20323413333334
914,27.80529799516895
915,36.20323413333334
916,27.80529799516895
917,36.20323413333334
918,27.80529799516895
919,36.20323413333334
920,23.549373786788384
921,3.64760788950559
922,17.945513990097106
923,3.64760788950559
924,18.289606784437848
925,28.159769947958574
926,8.968501219249858
927,0.30259207367757676
646,0.26666666666666669
648,0.0
2,1, 1, 1, 0, 1,45.00,60.00,Tuesday
6,7.2
239,1.0542900954011197
312,25.401016866719464
313,36.27884768875491
349,35.45562402652311
350,21.339679718518405
599,0.0
600,0.0
603,0.0
604,0.0
645,0.15247598066246058
647,0.05054617627577637
649,0.5599999999999998
650,0.6066666666666665
662,205.68666943889805
663,0.0
726,7.6530899993150929
727,0.0
730,9.156136857301805
731,0.0032818499906683655
734,5.393476590261836
735,0.006992096478301081
737,857.190476443764
739,75.71529301312518
741,0.0
743,0.0
892,17.658847640282045
893,3.3680759561722568
894,7.200000000000003
895,0.9805669191347557
896,7.200000000000003
897,1.5343280127023785
898,18.869103851595449
899,23.556877333333334
900,17.104363821319894
901,23.556877333333334
902,17.06325820345803
903,23.556877333333334
904,17.06325820345803
905,23.556877333333334
906,26.65823870574307
907,6.94003389929478
908,7.200000000000003
909,1.1648783130115508
910,7.200000000000003
911,0.32073250977585668
912,28.565894149738804
913,31.859946400000003
914,27.437511908801839
915,31.859946400000003
916,27.437511908801839
917,31.859946400000003
918,27.437511908801839
919,31.859946400000003
920,25.19789545311307
921,3.3680759561722568
922,20.570072315201864
923,3.3680759561722568
924,20.916226782692726
925,30.42520436856162
926,8.726051611568279
927,1.5343280127023785
646,0.26666666666666669
648,0.2
2,1, 1, 1, 0, 1, 0.00,60.00,Tuesday
133,16689.94126611854
134,12972.288472814907
135,2966.222973893344
136,13936.849545599995
137,10219.334400000002
138,2966.222973893344
139,32628.452712826787
173,4.687765003349753
174,16.48162755105479
175,8.03501528048729
176,0.5936775149633295
177,24.1096388750998
178,0.08945380717501223
179,1.0
180,0.0
181,0.0
182,0.0
183,0.0
184,0.0
185,1.0
186,0.0
187,0.0
188,0.0
189,0.0
190,0.0
191,-19.40632248503667
192,16689.94126611854
193,12972.288472814907
194,2966.222973893344
195,13936.849545599995
196,10219.334400000002
197,2966.222973893344
198,32628.452712826787
199,24365.16555037586
200,20217.89015186827
201,4458.305570224413
202,15546.354479999996
203,11399.520000000002
204,4458.305570224413
205,49041.361272468544
209,7.191814238064765
210,19.254655971065053
211,6.953764197683853
212,0.4657933902298571
213,26.764235786314573
214,0.08415681689296922
215,1.0
216,0.0
217,0.0
218,0.0
219,0.0
220,0.0
221,1.0
222,0.0
223,0.0
224,0.0
225,0.0
226,0.0
227,-19.534206609770146
228,24365.16555037586
229,20217.89015186827
230,4458.305570224413
231,15546.354479999996
232,11399.520000000002
233,4458.305570224413
234,49041.361272468544
315,20.0
316,23.0
352,20.0
353,23.0
387,0.0
388,0.0
422,0.0
423,0.0
525,0.0
526,0.0
527,0.75
528,0.0
529,0.0
530,0.0
531,0.75
532,0.0
533,0.0
534,0.0
535,0.0
536,0.0
537,0.0
538,0.0
539,0.0
540,0.0
314,4.0
351,4.0
386,0.0
421,0.0
517,81698.21398529534
518,4248.452357572149
519,85946.66634286748
520,0.0
521,0.0
522,0.05
523,0.016666666666666668
524,0.06666666666666667
541,0.5501603258192118
542,0.4
543,0.8855687060075902
544,0.9936346596442114
545,0.4
546,0.5681168985752709
605,1235.1990419651024
606,0.34418086316499038
607,1111.6791377685922
608,4446716.551074369
639,3.431955867129192
640,2437.1121808914886
641,0.3106022160807787
642,2193.4009628023405
643,8773603.851209358
644,6.944529065961446
766,955.1604420573022
788,10.176071823850558
789,10.123126586077503
790,1094.3646656696344
802,9.955054371699994
803,9.965025574893878
2,1, 1, 1, 0, 2, 0.00,15.00,Tuesday
6,7.2
239,1.0268120743233278
312,23.822923632536186
313,40.08693222848588
349,33.7870014958755
350,25.243632278749158
599,0.0
600,0.0
603,0.0
604,0.0
645,0.2146280935082993
647,0.031921303392677038
649,0.5999999999999999
650,0.6999999999999998
662,414.4838003173057
663,0.0
726,2.520608212881034
727,0.0
730,12.857142857142854
731,0.004902283595615587
734,7.203244794908476
735,0.007741408814766764
737,1526.6483753278778
739,83.39017548259652
741,0.0
743,0.0
892,16.497804972215943
893,4.131140906083406
894,7.199999999999999
895,1.4211064172460557
896,7.199999999999999
897,2.6169570884307049
898,17.070200672786219
899,19.28154257142857
900,14.861017129058997
901,19.28154257142857
902,14.814254688089444
903,19.28154257142857
904,14.814254688089444
905,19.28154257142857
906,24.313049056659588
907,6.596420744250308
908,7.199999999999999
909,1.6992826516055145
910,7.199999999999999
911,0.25591174356984
912,25.869106552091365
913,30.90440228571428
914,25.47514177141218
915,30.90440228571428
916,25.47514177141218
917,30.90440228571428
918,25.47514177141218
919,30.90440228571428
920,24.3856230967708
921,4.131140906083406
922,19.3450650588372
923,4.131140906083406
924,19.66628665630015
925,27.865802198892437
926,9.650580476492133
927,2.6169570884307049
646,0.4285714285714285
648,0.14285714285714283
2,1, 1, 1, 0, 2,15.00,30.00,Tuesday
6,7.2
239,1.0449882175061332
312,27.444487321908139
313,32.88658493447259
349,36.29611067277665
350,22.262689778285908
599,0.0
600,0.0
603,0.0
604,0.0
645,0.0638919664167967
647,0.03927965804252756
649,0.6363636363636361
650,0.4454545454545453
662,1.860205421636884
663,0.0
726,4.881134332609472
727,0.0
730,5.768488114190836
731,0.001592879301289385
734,3.142136920142823
735,0.004236932303370279
737,0.0
739,0.0
741,0.0
743,0.0
892,20.60445999006352
893,3.0052827584167129
894,7.199999999999999
895,0.4121475567211793
896,7.199999999999999
897,0.16080762554856505
898,22.7121227058552
899,27.24548018181818
900,21.981791590092663
901,27.24548018181818
902,21.981791590092663
903,27.24548018181818
904,21.981791590092663
905,27.24548018181818
906,27.76605296120611
907,6.989016534958693
908,7.199999999999999
909,1.027528194434494
910,7.199999999999999
911,0.2712467073382238
912,30.984057688238307
913,34.70320954545454
914,29.95944795154679
915,34.70320954545454
916,29.95944795154679
917,34.70320954545454
918,29.95944795154679
919,34.70320954545454
