Program Version,EnergyPlus, Version 8.8.0-Unknown, YMD=2019.07.16 14:13
1,5,Environment Title[],Latitude[deg],Longitude[deg],Time Zone[],Elevation[m]
2,6,Day of Simulation[],Month[],Day of Month[],DST Indicator[1=yes 0=no],Hour[],StartMinute[],EndMinute[],DayType
3,3,Cumulative Day of Simulation[],Month[],Day of Month[],DST Indicator[1=yes 0=no],DayType  ! When Daily Report Variables Requested
4,2,Cumulative Days of Simulation[],Month[]  ! When Monthly Report Variables Requested
5,1,Cumulative Days of Simulation[] ! When Run Period Report Variables Requested
6,1,Environment,Site Outdoor Air Drybulb Temperature [C] !TimeStep
133,1,WESTDATACENTER_EQUIP,ITE CPU Electric Power [W] !Hourly
134,1,WESTDATACENTER_EQUIP,ITE Fan Electric Power [W] !Hourly
135,1,WESTDATACENTER_EQUIP,ITE UPS Electric Power [W] !Hourly
136,1,WESTDATACENTER_EQUIP,ITE CPU Electric Power at Design Inlet Conditions [W] !Hourly
137,1,WESTDATACENTER_EQUIP,ITE Fan Electric Power at Design Inlet Conditions [W] !Hourly
138,1,WESTDATACENTER_EQUIP,ITE UPS Heat Gain to Zone Rate [W] !Hourly
139,1,WESTDATACENTER_EQUIP,ITE Total Heat Gain to Zone Rate [W] !Hourly
173,1,WESTDATACENTER_EQUIP,ITE Standard Density Air Volume Flow Rate [m3/s] !Hourly
174,1,WESTDATACENTER_EQUIP,ITE Air Inlet Dry-Bulb Temperature [C] !Hourly
175,1,WESTDATACENTER_EQUIP,ITE Air Inlet Dewpoint Temperature [C] !Hourly
176,1,WESTDATACENTER_EQUIP,ITE Air Inlet Relative Humidity [%] !Hourly
177,1,WESTDATACENTER_EQUIP,ITE Air Outlet Dry-Bulb Temperature [C] !Hourly
178,1,WESTDATACENTER_EQUIP,ITE Supply Heat Index [] !Hourly
179,1,WESTDATACENTER_EQUIP,ITE Air Inlet Operating Range Exceeded Time [hr] !Hourly
180,1,WESTDATACENTER_EQUIP,ITE Air Inlet Dry-Bulb Temperature Above Operating Range Time [hr] !Hourly
181,1,WESTDATACENTER_EQUIP,ITE Air Inlet Dry-Bulb Temperature Below Operating Range Time [hr] !Hourly
182,1,WESTDATACENTER_EQUIP,ITE Air Inlet Dewpoint Temperature Above Operating Range Time [hr] !Hourly
183,1,WESTDATACENTER_EQUIP,ITE Air Inlet Dewpoint Temperature Below Operating Range Time [hr] !Hourly
184,1,WESTDATACENTER_EQUIP,ITE Air Inlet Relative Humidity Above Operating Range Time [hr] !Hourly
185,1,WESTDATACENTER_EQUIP,ITE Air Inlet Relative Humidity Below Operating Range Time [hr] !Hourly
186,1,WESTDATACENTER_EQUIP,ITE Air Inlet Dry-Bulb Temperature Difference Above Operating Range [deltaC] !Hourly
187,1,WESTDATACENTER_EQUIP,ITE Air Inlet Dry-Bulb Temperature Difference Below Operating Range [deltaC] !Hourly
188,1,WESTDATACENTER_EQUIP,ITE Air Inlet Dewpoint Temperature Difference Above Operating Range [deltaC] !Hourly
189,1,WESTDATACENTER_EQUIP,ITE Air Inlet Dewpoint Temperature Difference Below Operating Range [deltaC] !Hourly
190,1,WESTDATACENTER_EQUIP,ITE Air Inlet Relative Humidity Difference Above Operating Range [%] !Hourly
191,1,WESTDATACENTER_EQUIP,ITE Air Inlet Relative Humidity Difference Below Operating Range [%] !Hourly
192,1,WEST ZONE,Zone ITE CPU Electric Power [W] !Hourly
193,1,WEST ZONE,Zone ITE Fan Electric Power [W] !Hourly
194,1,WEST ZONE,Zone ITE UPS Electric Power [W] !Hourly
195,1,WEST ZONE,Zone ITE CPU Electric Power at Design Inlet Conditions [W] !Hourly
196,1,WEST ZONE,Zone ITE Fan Electric Power at Design Inlet Conditions [W] !Hourly
197,1,WEST ZONE,Zone ITE UPS Heat Gain to Zone Rate [W] !Hourly
198,1,WEST ZONE,Zone ITE Total Heat Gain to Zone Rate [W] !Hourly
199,1,EASTDATACENTER_EQUIP,ITE CPU Electric Power [W] !Hourly
200,1,EASTDATACENTER_EQUIP,ITE Fan Electric Power [W] !Hourly
201,1,EASTDATACENTER_EQUIP,ITE UPS Electric Power [W] !Hourly
202,1,EASTDATACENTER_EQUIP,ITE CPU Electric Power at Design Inlet Conditions [W] !Hourly
203,1,EASTDATACENTER_EQUIP,ITE Fan Electric Power at Design Inlet Conditions [W] !Hourly
204,1,EASTDATACENTER_EQUIP,ITE UPS Heat Gain to Zone Rate [W] !Hourly
205,1,EASTDATACENTER_EQUIP,ITE Total Heat Gain to Zone Rate [W] !Hourly
209,1,EASTDATACENTER_EQUIP,ITE Standard Density Air Volume Flow Rate [m3/s] !Hourly
210,1,EASTDATACENTER_EQUIP,ITE Air Inlet Dry-Bulb Temperature [C] !Hourly
211,1,EASTDATACENTER_EQUIP,ITE Air Inlet Dewpoint Temperature [C] !Hourly
212,1,EASTDATACENTER_EQUIP,ITE Air Inlet Relative Humidity [%] !Hourly
213,1,EASTDATACENTER_EQUIP,ITE Air Outlet Dry-Bulb Temperature [C] !Hourly
214,1,EASTDATACENTER_EQUIP,ITE Supply Heat Index [] !Hourly
215,1,EASTDATACENTER_EQUIP,ITE Air Inlet Operating Range Exceeded Time [hr] !Hourly
216,1,EASTDATACENTER_EQUIP,ITE Air Inlet Dry-Bulb Temperature Above Operating Range Time [hr] !Hourly
217,1,EASTDATACENTER_EQUIP,ITE Air Inlet Dry-Bulb Temperature Below Operating Range Time [hr] !Hourly
218,1,EASTDATACENTER_EQUIP,ITE Air Inlet Dewpoint Temperature Above Operating Range Time [hr] !Hourly
219,1,EASTDATACENTER_EQUIP,ITE Air Inlet Dewpoint Temperature Below Operating Range Time [hr] !Hourly
220,1,EASTDATACENTER_EQUIP,ITE Air Inlet Relative Humidity Above Operating Range Time [hr] !Hourly
221,1,EASTDATACENTER_EQUIP,ITE Air Inlet Relative Humidity Below Operating Range Time [hr] !Hourly
222,1,EASTDATACENTER_EQUIP,ITE Air Inlet Dry-Bulb Temperature Difference Above Operating Range [deltaC] !Hourly
223,1,EASTDATACENTER_EQUIP,ITE Air Inlet Dry-Bulb Temperature Difference Below Operating Range [deltaC] !Hourly
224,1,EASTDATACENTER_EQUIP,ITE Air Inlet Dewpoint Temperature Difference Above Operating Range [deltaC] !Hourly
225,1,EASTDATACENTER_EQUIP,ITE Air Inlet Dewpoint Temperature Difference Below Operating Range [deltaC] !Hourly
226,1,EASTDATACENTER_EQUIP,ITE Air Inlet Relative Humidity Difference Above Operating Range [%] !Hourly
227,1,EASTDATACENTER_EQUIP,ITE Air Inlet Relative Humidity Difference Below Operating Range [%] !Hourly
228,1,EAST ZONE,Zone ITE CPU Electric Power [W] !Hourly
229,1,EAST ZONE,Zone ITE Fan Electric Power [W] !Hourly
230,1,EAST ZONE,Zone ITE UPS Electric Power [W] !Hourly
231,1,EAST ZONE,Zone ITE CPU Electric Power at Design Inlet Conditions [W] !Hourly
232,1,EAST ZONE,Zone ITE Fan Electric Power at Design Inlet Conditions [W] !Hourly
233,1,EAST ZONE,Zone ITE UPS Heat Gain to Zone Rate [W] !Hourly
234,1,EAST ZONE,Zone ITE Total Heat Gain to Zone Rate [W] !Hourly
239,1,EMS,Power Utilization Effectiveness [] !TimeStep
312,1,WEST ZONE,Zone Air Temperature [C] !TimeStep
313,1,WEST ZONE,Zone Air Relative Humidity [%] !TimeStep
314,1,WEST ZONE,Zone Thermostat Control Type [] !Hourly
315,1,WEST ZONE,Zone Thermostat Heating Setpoint Temperature [C] !Hourly
316,1,WEST ZONE,Zone Thermostat Cooling Setpoint Temperature [C] !Hourly
349,1,EAST ZONE,Zone Air Temperature [C] !TimeStep
350,1,EAST ZONE,Zone Air Relative Humidity [%] !TimeStep
351,1,EAST ZONE,Zone Thermostat Control Type [] !Hourly
352,1,EAST ZONE,Zone Thermostat Heating Setpoint Temperature [C] !Hourly
353,1,EAST ZONE,Zone Thermostat Cooling Setpoint Temperature [C] !Hourly
386,1,WEST PLENUM,Zone Thermostat Control Type [] !Hourly
387,1,WEST PLENUM,Zone Thermostat Heating Setpoint Temperature [C] !Hourly
388,1,WEST PLENUM,Zone Thermostat Cooling Setpoint Temperature [C] !Hourly
421,1,EAST PLENUM,Zone Thermostat Control Type [] !Hourly
422,1,EAST PLENUM,Zone Thermostat Heating Setpoint Temperature [C] !Hourly
423,1,EAST PLENUM,Zone Thermostat Cooling Setpoint Temperature [C] !Hourly
517,1,Whole Building,Facility Total Building Electric Demand Power [W] !Hourly
518,1,Whole Building,Facility Total HVAC Electric Demand Power [W] !Hourly
519,1,Whole Building,Facility Total Electric Demand Power [W] !Hourly
520,1,WEST ZONE,Zone Oscillating Temperatures Time [hr] !Hourly
521,1,EAST ZONE,Zone Oscillating Temperatures Time [hr] !Hourly
522,1,WEST PLENUM,Zone Oscillating Temperatures Time [hr] !Hourly
523,1,EAST PLENUM,Zone Oscillating Temperatures Time [hr] !Hourly
524,1,Facility,Facility Any Zone Oscillating Temperatures Time [hr] !Hourly
525,1,WEST ZONE,Zone Heating Setpoint Not Met Time [hr] !Hourly
526,1,WEST ZONE,Zone Heating Setpoint Not Met While Occupied Time [hr] !Hourly
527,1,WEST ZONE,Zone Cooling Setpoint Not Met Time [hr] !Hourly
528,1,WEST ZONE,Zone Cooling Setpoint Not Met While Occupied Time [hr] !Hourly
529,1,EAST ZONE,Zone Heating Setpoint Not Met Time [hr] !Hourly
530,1,EAST ZONE,Zone Heating Setpoint Not Met While Occupied Time [hr] !Hourly
531,1,EAST ZONE,Zone Cooling Setpoint Not Met Time [hr] !Hourly
532,1,EAST ZONE,Zone Cooling Setpoint Not Met While Occupied Time [hr] !Hourly
533,1,WEST PLENUM,Zone Heating Setpoint Not Met Time [hr] !Hourly
534,1,WEST PLENUM,Zone Heating Setpoint Not Met While Occupied Time [hr] !Hourly
535,1,WEST PLENUM,Zone Cooling Setpoint Not Met Time [hr] !Hourly
536,1,WEST PLENUM,Zone Cooling Setpoint Not Met While Occupied Time [hr] !Hourly
537,1,EAST PLENUM,Zone Heating Setpoint Not Met Time [hr] !Hourly
538,1,EAST PLENUM,Zone Heating Setpoint Not Met While Occupied Time [hr] !Hourly
539,1,EAST PLENUM,Zone Cooling Setpoint Not Met Time [hr] !Hourly
540,1,EAST PLENUM,Zone Cooling Setpoint Not Met While Occupied Time [hr] !Hourly
541,1,WEST ZONE VAV SYSTEM,Zone Air Terminal VAV Damper Position [] !Hourly
542,1,WEST ZONE VAV SYSTEM,Zone Air Terminal Minimum Air Flow Fraction [] !Hourly
543,1,WEST ZONE VAV SYSTEM,Zone Air Terminal Outdoor Air Volume Flow Rate [m3/s] !Hourly
544,1,EAST ZONE VAV SYSTEM,Zone Air Terminal VAV Damper Position [] !Hourly
545,1,EAST ZONE VAV SYSTEM,Zone Air Terminal Minimum Air Flow Fraction [] !Hourly
546,1,EAST ZONE VAV SYSTEM,Zone Air Terminal Outdoor Air Volume Flow Rate [m3/s] !Hourly
599,1,WEST ZONE CW COOLING COIL,Cooling Coil Total Cooling Rate [W] !TimeStep
600,1,WEST ZONE CW COOLING COIL,Cooling Coil Sensible Cooling Rate [W] !TimeStep
603,1,EAST ZONE CW COOLING COIL,Cooling Coil Total Cooling Rate [W] !TimeStep
604,1,EAST ZONE CW COOLING COIL,Cooling Coil Sensible Cooling Rate [W] !TimeStep
605,1,WEST ZONE SUPPLY FAN,Fan Electric Power [W] !Hourly
606,1,WEST ZONE SUPPLY FAN,Fan Rise in Air Temperature [deltaC] !Hourly
607,1,WEST ZONE SUPPLY FAN,Fan Heat Gain to Air [W] !Hourly
608,1,WEST ZONE SUPPLY FAN,Fan Electric Energy [J] !Hourly
639,1,WEST ZONE SUPPLY FAN,Fan Air Mass Flow Rate [kg/s] !Hourly
640,1,EAST ZONE SUPPLY FAN,Fan Electric Power [W] !Hourly
641,1,EAST ZONE SUPPLY FAN,Fan Rise in Air Temperature [deltaC] !Hourly
642,1,EAST ZONE SUPPLY FAN,Fan Heat Gain to Air [W] !Hourly
643,1,EAST ZONE SUPPLY FAN,Fan Electric Energy [J] !Hourly
644,1,EAST ZONE SUPPLY FAN,Fan Air Mass Flow Rate [kg/s] !Hourly
645,1,WEST DATA CENTER IEC,Evaporative Cooler Total Stage Effectiveness [] !TimeStep
646,1,WEST DATA CENTER IEC,Evaporative Cooler Operating Mode Status [] !TimeStep
647,1,EAST DATA CENTER IEC,Evaporative Cooler Total Stage Effectiveness [] !TimeStep
648,1,EAST DATA CENTER IEC,Evaporative Cooler Operating Mode Status [] !TimeStep
649,1,WEST DATA CENTER DEC,Evaporative Cooler Stage Effectiveness [] !TimeStep
650,1,EAST DATA CENTER DEC,Evaporative Cooler Stage Effectiveness [] !TimeStep
662,1,WEST DATA CENTER IEC,Evaporative Cooler Electric Power [W] !TimeStep
663,1,WEST DATA CENTER IEC,Evaporative Cooler Water Volume [m3] !TimeStep
726,1,EAST DATA CENTER IEC,Evaporative Cooler Electric Power [W] !TimeStep
727,1,EAST DATA CENTER IEC,Evaporative Cooler Water Volume [m3] !TimeStep
730,1,WEST DATA CENTER DEC,Evaporative Cooler Electric Power [W] !TimeStep
731,1,WEST DATA CENTER DEC,Evaporative Cooler Water Volume [m3] !TimeStep
734,1,EAST DATA CENTER DEC,Evaporative Cooler Electric Power [W] !TimeStep
735,1,EAST DATA CENTER DEC,Evaporative Cooler Water Volume [m3] !TimeStep
737,1,WEST DX COOLING COIL,Cooling Coil Total Cooling Rate [W] !TimeStep
739,1,WEST DX COOLING COIL,Cooling Coil Sensible Cooling Rate [W] !TimeStep
741,1,EAST DX COOLING COIL,Cooling Coil Total Cooling Rate [W] !TimeStep
743,1,EAST DX COOLING COIL,Cooling Coil Sensible Cooling Rate [W] !TimeStep
766,1,CHILLER,Chiller Evaporator Cooling Rate [W] !Hourly
788,1,CHILLER,Chiller Evaporator Inlet Temperature [C] !Hourly
789,1,CHILLER,Chiller Evaporator Outlet Temperature [C] !Hourly
790,1,CHILLER,Chiller Condenser Heat Transfer Rate [W] !Hourly
802,1,CHILLER,Chiller Condenser Inlet Temperature [C] !Hourly
803,1,CHILLER,Chiller Condenser Outlet Temperature [C] !Hourly
892,1,WEST ZONE INLET NODE,System Node Temperature [C] !TimeStep
893,1,WEST ZONE INLET NODE,System Node Mass Flow Rate [kg/s] !TimeStep
894,1,WEST OUTSIDE AIR INLET NODE,System Node Temperature [C] !TimeStep
895,1,WEST OUTSIDE AIR INLET NODE,System Node Mass Flow Rate [kg/s] !TimeStep
896,1,WEST IEC SECONDARY AIR INLET NODE,System Node Temperature [C] !TimeStep
897,1,WEST IEC SECONDARY AIR INLET NODE,System Node Mass Flow Rate [kg/s] !TimeStep
898,1,WEST ZONE DEC OUTLET NODE,System Node Temperature [C] !TimeStep
899,1,WEST ZONE DEC OUTLET NODE,System Node Setpoint Temperature [C] !TimeStep
900,1,WEST ZONE IEC OUTLET NODE,System Node Temperature [C] !TimeStep
901,1,WEST ZONE IEC OUTLET NODE,System Node Setpoint Temperature [C] !TimeStep
902,1,WEST ZONE CCOIL AIR OUTLET NODE,System Node Temperature [C] !TimeStep
903,1,WEST ZONE CCOIL AIR OUTLET NODE,System Node Setpoint Temperature [C] !TimeStep
904,1,WEST AIR LOOP OUTLET NODE,System Node Temperature [C] !TimeStep
905,1,WEST AIR LOOP OUTLET NODE,System Node Setpoint Temperature [C] !TimeStep
906,1,EAST ZONE INLET NODE,System Node Temperature [C] !TimeStep
907,1,EAST ZONE INLET NODE,System Node Mass Flow Rate [kg/s] !TimeStep
908,1,EAST OUTSIDE AIR INLET NODE,System Node Temperature [C] !TimeStep
909,1,EAST OUTSIDE AIR INLET NODE,System Node Mass Flow Rate [kg/s] !TimeStep
910,1,EAST IEC SECONDARY AIR INLET NODE,System Node Temperature [C] !TimeStep
911,1,EAST IEC SECONDARY AIR INLET NODE,System Node Mass Flow Rate [kg/s] !TimeStep
912,1,EAST ZONE DEC OUTLET NODE,System Node Temperature [C] !TimeStep
913,1,EAST ZONE DEC OUTLET NODE,System Node Setpoint Temperature [C] !TimeStep
914,1,EAST ZONE IEC OUTLET NODE,System Node Temperature [C] !TimeStep
915,1,EAST ZONE IEC OUTLET NODE,System Node Setpoint Temperature [C] !TimeStep
916,1,EAST ZONE CCOIL AIR OUTLET NODE,System Node Temperature [C] !TimeStep
917,1,EAST ZONE CCOIL AIR OUTLET NODE,System Node Setpoint Temperature [C] !TimeStep
918,1,EAST AIR LOOP OUTLET NODE,System Node Temperature [C] !TimeStep
919,1,EAST AIR LOOP OUTLET NODE,System Node Setpoint Temperature [C] !TimeStep
920,1,WEST ZONE RETURN AIR NODE,System Node Temperature [C] !TimeStep
921,1,WEST ZONE RETURN AIR NODE,System Node Mass Flow Rate [kg/s] !TimeStep
922,1,WEST ZONE MIXED AIR NODE,System Node Temperature [C] !TimeStep
923,1,WEST ZONE MIXED AIR NODE,System Node Mass Flow Rate [kg/s] !TimeStep
924,1,WEST ZONE SUPPLY FAN OUTLET NODE,System Node Temperature [C] !TimeStep
925,1,EAST ZONE SUPPLY FAN OUTLET NODE,System Node Temperature [C] !TimeStep
926,1,WEST IEC SECONDARY AIR OUTLET NODE,System Node Temperature [C] !TimeStep
927,1,WEST IEC SECONDARY AIR OUTLET NODE,System Node Mass Flow Rate [kg/s] !TimeStep
End of Data Dictionary
1,WHOLEYEARDAY,  37.62,-122.40,  -8.00,   2.00
2,1, 1, 1, 0, 1, 0.00,15.00,Tuesday
6,6.825
239,1.0300298866314462
312,23.16386935405466
313,30.039726950232834
349,24.67215639827543
350,26.47068111304971
599,0.0
600,0.0
603,0.0
604,0.0
645,0.04608769094263193
647,0.033061524351958287
649,0.6533333333333331
650,0.6533333333333331
662,33.80216433575366
663,0.0
726,0.28614650243423325
727,0.0
730,2.0
731,0.0018455178069384472
734,2.3800965202697066
735,0.0009161116917386543
737,0.0
739,0.0
741,0.0
743,0.0
892,19.349226153079905
893,4.032808758022359
894,6.825
895,0.3289514230118499
896,6.825
897,0.4071546698035686
898,21.90184330792992
899,35.6868544
900,21.431232784826965
901,35.6868544
902,21.431232784826965
903,35.6868544
904,21.431232784826965
905,35.6868544
906,20.060532696443237
907,2.7927364356639128
908,6.825
909,0.14149245644010406
910,6.825
911,0.0702387366604547
912,22.83631364297492
913,33.79036586666667
914,22.489129331336036
915,33.79036586666667
916,22.489129331336036
917,33.79036586666667
918,22.489129331336036
919,33.79036586666667
920,23.108542555778507
921,4.032808758022359
922,22.09078310369315
923,4.032808758022359
924,22.43873245928938
925,23.485761356921495
926,7.308427768369483
927,0.4071546698035686
646,0.06666666666666667
648,0.06666666666666667
2,1, 1, 1, 0, 1,15.00,30.00,Tuesday
6,6.95
239,1.0485175266464458
312,28.215877740055743
313,25.516747696680825
349,34.814026217013907
350,16.406126253306998
599,0.0
600,0.0
603,0.0
604,0.0
645,0.10221575166818281
647,0.0
649,0.6066666666666665
650,0.6999999999999997
662,193.42577348140936
663,0.0
726,0.0
727,0.0
730,6.780748732947067
731,0.004694097482397556
734,2.742946244039178
735,0.0016406333803659112
737,3438.9685049876407
739,319.65256922602506
741,0.0
743,0.0
892,19.316129046189375
893,4.28448946851677
894,6.9499999999999979
895,0.7465231366112086
896,6.9499999999999979
897,1.2312334600227058
898,22.342900940490904
899,31.0107974
900,21.102756130826309
901,31.0107974
902,21.034727327618396
903,31.0107974
904,21.034727327618396
905,31.0107974
906,27.416989163598527
907,3.977076835663913
908,6.9499999999999979
909,0.397912690954855
910,6.9499999999999979
911,0.0
912,30.875064621892
913,35.79105993333333
914,30.875064621892
915,35.79105993333333
916,30.875064621892
917,35.79105993333333
918,30.875064621892
919,35.79105993333333
920,27.792045122724507
921,4.28448946851677
922,23.940172164090688
923,4.28448946851677
924,24.255078615377007
925,31.902703160590926
926,8.25598408803859
927,1.2312334600227058
646,0.2
648,0.0
2,1, 1, 1, 0, 1,30.00,45.00,Tuesday
6,7.075
239,1.026113150637948
312,35.80939140534884
313,19.047640339227518
349,44.61176255744501
350,10.955570770175122
599,0.0
600,0.0
603,675.4449028489487
604,100.8799380427338
645,0.02874447853556259
647,0.061069371634520679
649,0.32666666666666668
650,0.6533333333333331
662,0.9160411721295217
663,0.0
726,108.35864435660099
727,0.0
730,2.329686761716873
731,0.0018869064709193988
734,6.69161355595668
735,0.003992392054347806
737,0.0
739,0.0
741,0.0
743,0.0
892,27.393482481663079
893,4.12453286851677
894,7.075
895,0.566572382489874
896,7.075
897,0.12952851290451815
898,31.846146217140526
899,35.88939593333333
900,31.448900664483216
901,35.88939593333333
902,31.448900664483216
903,35.88939593333333
904,31.448900664483216
905,35.88939593333333
906,25.59784007738457
907,3.3780075689972466
908,7.075
909,1.3085275958180843
910,7.075
911,0.7087971266757543
912,28.80147346465814
913,31.371384333333329
914,27.937445225087968
915,31.371384333333329
916,27.937445225087968
917,31.371384333333329
918,27.883505568316
919,31.371384333333329
920,34.80175930098896
921,4.12453286851677
922,32.198315303569
923,4.12453286851677
924,32.53330818659023
925,31.464153367934214
926,9.686352541882553
927,0.12952851290451815
646,0.13333333333333334
648,0.13333333333333334
2,1, 1, 1, 0, 1,45.00,60.00,Tuesday
6,7.2
239,1.011358699290202
312,44.79123890604047
313,11.153283348197954
349,44.31452608732184
350,13.063996005111154
599,0.0
600,0.0
603,2664.9906433347746
604,414.2784198226338
645,0.1558905922328547
647,0.1565428701006473
649,0.2333333333333333
650,0.41999999999999995
662,102.44513573495306
663,0.0
726,113.59784977380578
727,0.0
730,0.0
731,0.0
734,6.067890588295998
735,0.005082151726013165
737,41.38654729359015
739,28.791652883279764
741,0.0
743,0.0
892,28.1711076366948
893,4.033618514194616
894,7.200000000000003
895,1.2074594680214679
896,7.200000000000003
897,0.9448097582174786
898,34.15741315226583
899,34.41597666666667
900,29.253707764139795
901,34.41597666666667
902,29.242767724847608
903,34.41597666666667
904,29.242767724847608
905,34.41597666666667
906,24.325567228866864
907,2.8289697023305799
908,7.200000000000003
909,1.1008547922758217
910,7.200000000000003
911,1.0531660773030545
912,28.21925315363798
913,29.45975346666667
914,24.796914403972847
915,29.45975346666667
916,24.796914403972847
917,29.45975346666667
918,24.699801394467685
919,29.45975346666667
920,44.28344537391044
921,4.033618514194616
922,33.80706212405748
923,4.033618514194616
924,34.15741315226583
925,30.29724082172893
926,14.764656948952748
927,0.9448097582174786
646,0.3333333333333333
648,0.3333333333333333
2,1, 1, 1, 0, 1, 0.00,60.00,Tuesday
133,30229.048271085354
134,26510.718556277556
135,5673.976682736289
136,13936.849545599995
137,10219.334400000002
138,5673.976682736289
139,62413.74351009921
173,9.271142231078958
174,23.767949981118784
175,6.168933744498455
176,0.34472901340402858
177,31.193340001265449
178,0.08128142710808197
179,1.0
180,0.0
181,0.0
182,0.0
183,0.0
184,0.0
185,1.0
186,0.0
187,0.0
188,0.0
189,0.0
190,0.0
191,-19.655270986595974
192,30229.048271085354
193,26510.718556277556
194,5673.976682736289
195,13936.849545599995
196,10219.334400000002
197,5673.976682736289
198,62413.74351009921
199,35681.394757486196
200,31533.55357580742
201,6721.494833329361
202,15546.354479999996
203,11399.520000000002
204,6721.494833329361
205,73936.44316662298
209,11.013159069958009
210,24.714197147506277
211,5.679740309141385
212,0.31701005942228058
213,32.1278928854062
214,0.11145139071925253
215,1.0
216,0.0
217,0.0
218,0.0
219,0.0
220,0.0
221,1.0
222,0.0
223,0.0
224,0.0
225,0.0
226,0.0
227,-19.68298994057772
228,35681.394757486196
229,31533.55357580742
230,6721.494833329361
231,15546.354479999996
232,11399.520000000002
233,6721.494833329361
234,73936.44316662298
315,20.0
316,23.0
352,20.0
353,23.0
387,0.0
388,0.0
422,0.0
423,0.0
525,0.0
526,0.0
527,0.75
528,0.0
529,0.0
530,0.0
531,1.0
532,0.0
533,0.0
534,0.0
535,0.0
536,0.0
537,0.0
538,0.0
539,0.0
540,0.0
314,4.0
351,4.0
386,0.0
421,0.0
517,136378.5866767222
518,3590.107478761257
519,139968.69415548346
520,0.03333333333333333
521,0.0
522,0.06666666666666667
523,0.0
524,0.08333333333333334
541,0.6602750061457928
542,0.4
543,0.591663523201428
544,0.4641851424211985
545,0.4
546,0.6122779777630006
605,1469.0276462749152
606,0.33704992952803505
607,1322.124881647424
608,5288499.526589695
639,4.118862402312629
640,1300.8870053777891
641,0.4052046794945271
642,1170.7983048400101
643,4683193.2193600409
644,3.244197635663913
766,865.7773924886577
788,10.205596490411244
789,10.045361738530428
790,991.6174514771213
802,9.920010439337695
803,9.929045384134007
2,1, 1, 1, 0, 2, 0.00,15.00,Tuesday
6,7.2
239,1.0175904098821416
312,40.54412582061169
313,13.134518381368427
349,35.0628761893057
350,22.25138246209827
599,0.0
600,0.0
603,4694.735524042609
604,889.7110688791017
645,0.149133153726487
647,0.12014742261426277
649,0.27999999999999999
650,0.5599999999999998
662,27.212089146683096
663,0.0
726,217.17407062385275
727,0.0
730,0.04583709027479244
731,0.000026409397564666522
734,7.25455103935699
735,0.006426651108551987
737,0.0
739,0.0
741,0.0
743,0.0
892,27.443803987630873
893,4.177001556172256
894,7.200000000000003
895,0.8224239537541781
896,7.200000000000003
897,0.8516598359485131
898,33.38258519636965
899,34.05746106666667
900,28.568989318211377
901,34.05746106666667
902,28.568989318211377
903,34.05746106666667
904,28.568989318211377
905,34.05746106666667
906,21.379885172673668
907,3.6707161689972458
908,7.200000000000003
909,0.8790013054169821
910,7.200000000000003
911,1.467418527655566
912,25.42053983574817
913,30.379651333333336
914,22.78876931683829
915,30.379651333333336
916,22.78876931683829
917,30.379651333333336
918,22.58972515284504
919,30.379651333333336
920,40.70286205279725
921,4.177001556172256
922,33.07309739748792
923,4.177001556172256
924,33.39421904049225
925,27.848954321427326
926,15.96122645110219
927,0.8516598359485131
646,0.3333333333333333
648,0.26666666666666669
2,1, 1, 1, 0, 2,15.00,30.00,Tuesday
6,7.2
239,1.0247524856576167
312,46.40574886202988
313,9.4680693206657
349,43.462616735595997
350,14.290355724973104
599,0.0
600,0.0
603,4537.159966453038
604,764.7314456436884
645,0.09942720655592399
647,0.15092395408456936
649,0.27999999999999999
650,0.46666666666666659
662,35.12801983094253
663,0.0
726,110.70974745613276
727,0.0
730,0.017656948560975398
731,0.0000067030022970105699
734,4.09281969527515
735,0.0037578883096684387
737,0.0
739,0.0
741,0.0
743,0.0
892,29.614060366788754
893,4.07665575802236
894,7.200000000000003
895,1.0030349391702589
896,7.200000000000003
897,0.632887099005992
898,36.10982815414853
899,36.114873466666669
900,33.223595875308017
901,36.114873466666669
902,33.223595875308017
903,36.114873466666669
904,33.223595875308017
905,36.114873466666669
906,26.78141128971978
907,4.132232937994492
908,7.200000000000003
909,1.240495117533426
910,7.200000000000003
911,1.0251739845099684
912,30.332498141354976
913,31.82667466666667
914,26.254891197136187
915,31.82667466666667
916,26.254891197136187
917,31.82667466666667
918,26.12408861841601
919,31.82667466666667
920