Program Version,EnergyPlus, Version 8.8.0-Unknown, YMD=2019.07.12 12:58
1,5,Environment Title[],Latitude[deg],Longitude[deg],Time Zone[],Elevation[m]
2,6,Day of Simulation[],Month[],Day of Month[],DST Indicator[1=yes 0=no],Hour[],StartMinute[],EndMinute[],DayType
3,3,Cumulative Day of Simulation[],Month[],Day of Month[],DST Indicator[1=yes 0=no],DayType  ! When Daily Report Variables Requested
4,2,Cumulative Days of Simulation[],Month[]  ! When Monthly Report Variables Requested
5,1,Cumulative Days of Simulation[] ! When Run Period Report Variables Requested
6,1,Environment,Site Outdoor Air Drybulb Temperature [C] !TimeStep
133,1,WESTDATACENTER_EQUIP,ITE CPU Electric Power [W] !Hourly
134,1,WESTDATACENTER_EQUIP,ITE Fan Electric Power [W] !Hourly
135,1,WESTDATACENTER_EQUIP,ITE UPS Electric Power [W] !Hourly
136,1,WESTDATACENTER_EQUIP,ITE CPU Electric Power at Design Inlet Conditions [W] !Hourly
137,1,WESTDATACENTER_EQUIP,ITE Fan Electric Power at Design Inlet Conditions [W] !Hourly
138,1,WESTDATACENTER_EQUIP,ITE UPS Heat Gain to Zone Rate [W] !Hourly
139,1,WESTDATACENTER_EQUIP,ITE Total Heat Gain to Zone Rate [W] !Hourly
173,1,WESTDATACENTER_EQUIP,ITE Standard Density Air Volume Flow Rate [m3/s] !Hourly
174,1,WESTDATACENTER_EQUIP,ITE Air Inlet Dry-Bulb Temperature [C] !Hourly
175,1,WESTDATACENTER_EQUIP,ITE Air Inlet Dewpoint Temperature [C] !Hourly
176,1,WESTDATACENTER_EQUIP,ITE Air Inlet Relative Humidity [%] !Hourly
177,1,WESTDATACENTER_EQUIP,ITE Air Outlet Dry-Bulb Temperature [C] !Hourly
178,1,WESTDATACENTER_EQUIP,ITE Supply Heat Index [] !Hourly
179,1,WESTDATACENTER_EQUIP,ITE Air Inlet Operating Range Exceeded Time [hr] !Hourly
180,1,WESTDATACENTER_EQUIP,ITE Air Inlet Dry-Bulb Temperature Above Operating Range Time [hr] !Hourly
181,1,WESTDATACENTER_EQUIP,ITE Air Inlet Dry-Bulb Temperature Below Operating Range Time [hr] !Hourly
182,1,WESTDATACENTER_EQUIP,ITE Air Inlet Dewpoint Temperature Above Operating Range Time [hr] !Hourly
183,1,WESTDATACENTER_EQUIP,ITE Air Inlet Dewpoint Temperature Below Operating Range Time [hr] !Hourly
184,1,WESTDATACENTER_EQUIP,ITE Air Inlet Relative Humidity Above Operating Range Time [hr] !Hourly
185,1,WESTDATACENTER_EQUIP,ITE Air Inlet Relative Humidity Below Operating Range Time [hr] !Hourly
186,1,WESTDATACENTER_EQUIP,ITE Air Inlet Dry-Bulb Temperature Difference Above Operating Range [deltaC] !Hourly
187,1,WESTDATACENTER_EQUIP,ITE Air Inlet Dry-Bulb Temperature Difference Below Operating Range [deltaC] !Hourly
188,1,WESTDATACENTER_EQUIP,ITE Air Inlet Dewpoint Temperature Difference Above Operating Range [deltaC] !Hourly
189,1,WESTDATACENTER_EQUIP,ITE Air Inlet Dewpoint Temperature Difference Below Operating Range [deltaC] !Hourly
190,1,WESTDATACENTER_EQUIP,ITE Air Inlet Relative Humidity Difference Above Operating Range [%] !Hourly
191,1,WESTDATACENTER_EQUIP,ITE Air Inlet Relative Humidity Difference Below Operating Range [%] !Hourly
192,1,WEST ZONE,Zone ITE CPU Electric Power [W] !Hourly
193,1,WEST ZONE,Zone ITE Fan Electric Power [W] !Hourly
194,1,WEST ZONE,Zone ITE UPS Electric Power [W] !Hourly
195,1,WEST ZONE,Zone ITE CPU Electric Power at Design Inlet Conditions [W] !Hourly
196,1,WEST ZONE,Zone ITE Fan Electric Power at Design Inlet Conditions [W] !Hourly
197,1,WEST ZONE,Zone ITE UPS Heat Gain to Zone Rate [W] !Hourly
198,1,WEST ZONE,Zone ITE Total Heat Gain to Zone Rate [W] !Hourly
199,1,EASTDATACENTER_EQUIP,ITE CPU Electric Power [W] !Hourly
200,1,EASTDATACENTER_EQUIP,ITE Fan Electric Power [W] !Hourly
201,1,EASTDATACENTER_EQUIP,ITE UPS Electric Power [W] !Hourly
202,1,EASTDATACENTER_EQUIP,ITE CPU Electric Power at Design Inlet Conditions [W] !Hourly
203,1,EASTDATACENTER_EQUIP,ITE Fan Electric Power at Design Inlet Conditions [W] !Hourly
204,1,EASTDATACENTER_EQUIP,ITE UPS Heat Gain to Zone Rate [W] !Hourly
205,1,EASTDATACENTER_EQUIP,ITE Total Heat Gain to Zone Rate [W] !Hourly
209,1,EASTDATACENTER_EQUIP,ITE Standard Density Air Volume Flow Rate [m3/s] !Hourly
210,1,EASTDATACENTER_EQUIP,ITE Air Inlet Dry-Bulb Temperature [C] !Hourly
211,1,EASTDATACENTER_EQUIP,ITE Air Inlet Dewpoint Temperature [C] !Hourly
212,1,EASTDATACENTER_EQUIP,ITE Air Inlet Relative Humidity [%] !Hourly
213,1,EASTDATACENTER_EQUIP,ITE Air Outlet Dry-Bulb Temperature [C] !Hourly
214,1,EASTDATACENTER_EQUIP,ITE Supply Heat Index [] !Hourly
215,1,EASTDATACENTER_EQUIP,ITE Air Inlet Operating Range Exceeded Time [hr] !Hourly
216,1,EASTDATACENTER_EQUIP,ITE Air Inlet Dry-Bulb Temperature Above Operating Range Time [hr] !Hourly
217,1,EASTDATACENTER_EQUIP,ITE Air Inlet Dry-Bulb Temperature Below Operating Range Time [hr] !Hourly
218,1,EASTDATACENTER_EQUIP,ITE Air Inlet Dewpoint Temperature Above Operating Range Time [hr] !Hourly
219,1,EASTDATACENTER_EQUIP,ITE Air Inlet Dewpoint Temperature Below Operating Range Time [hr] !Hourly
220,1,EASTDATACENTER_EQUIP,ITE Air Inlet Relative Humidity Above Operating Range Time [hr] !Hourly
221,1,EASTDATACENTER_EQUIP,ITE Air Inlet Relative Humidity Below Operating Range Time [hr] !Hourly
222,1,EASTDATACENTER_EQUIP,ITE Air Inlet Dry-Bulb Temperature Difference Above Operating Range [deltaC] !Hourly
223,1,EASTDATACENTER_EQUIP,ITE Air Inlet Dry-Bulb Temperature Difference Below Operating Range [deltaC] !Hourly
224,1,EASTDATACENTER_EQUIP,ITE Air Inlet Dewpoint Temperature Difference Above Operating Range [deltaC] !Hourly
225,1,EASTDATACENTER_EQUIP,ITE Air Inlet Dewpoint Temperature Difference Below Operating Range [deltaC] !Hourly
226,1,EASTDATACENTER_EQUIP,ITE Air Inlet Relative Humidity Difference Above Operating Range [%] !Hourly
227,1,EASTDATACENTER_EQUIP,ITE Air Inlet Relative Humidity Difference Below Operating Range [%] !Hourly
228,1,EAST ZONE,Zone ITE CPU Electric Power [W] !Hourly
229,1,EAST ZONE,Zone ITE Fan Electric Power [W] !Hourly
230,1,EAST ZONE,Zone ITE UPS Electric Power [W] !Hourly
231,1,EAST ZONE,Zone ITE CPU Electric Power at Design Inlet Conditions [W] !Hourly
232,1,EAST ZONE,Zone ITE Fan Electric Power at Design Inlet Conditions [W] !Hourly
233,1,EAST ZONE,Zone ITE UPS Heat Gain to Zone Rate [W] !Hourly
234,1,EAST ZONE,Zone ITE Total Heat Gain to Zone Rate [W] !Hourly
239,1,EMS,Power Utilization Effectiveness [] !TimeStep
312,1,WEST ZONE,Zone Air Temperature [C] !TimeStep
313,1,WEST ZONE,Zone Air Relative Humidity [%] !TimeStep
314,1,WEST ZONE,Zone Thermostat Control Type [] !Hourly
315,1,WEST ZONE,Zone Thermostat Heating Setpoint Temperature [C] !Hourly
316,1,WEST ZONE,Zone Thermostat Cooling Setpoint Temperature [C] !Hourly
349,1,EAST ZONE,Zone Air Temperature [C] !TimeStep
350,1,EAST ZONE,Zone Air Relative Humidity [%] !TimeStep
351,1,EAST ZONE,Zone Thermostat Control Type [] !Hourly
352,1,EAST ZONE,Zone Thermostat Heating Setpoint Temperature [C] !Hourly
353,1,EAST ZONE,Zone Thermostat Cooling Setpoint Temperature [C] !Hourly
386,1,WEST PLENUM,Zone Thermostat Control Type [] !Hourly
387,1,WEST PLENUM,Zone Thermostat Heating Setpoint Temperature [C] !Hourly
388,1,WEST PLENUM,Zone Thermostat Cooling Setpoint Temperature [C] !Hourly
421,1,EAST PLENUM,Zone Thermostat Control Type [] !Hourly
422,1,EAST PLENUM,Zone Thermostat Heating Setpoint Temperature [C] !Hourly
423,1,EAST PLENUM,Zone Thermostat Cooling Setpoint Temperature [C] !Hourly
517,1,Whole Building,Facility Total Building Electric Demand Power [W] !Hourly
518,1,Whole Building,Facility Total HVAC Electric Demand Power [W] !Hourly
519,1,Whole Building,Facility Total Electric Demand Power [W] !Hourly
520,1,WEST ZONE,Zone Oscillating Temperatures Time [hr] !Hourly
521,1,EAST ZONE,Zone Oscillating Temperatures Time [hr] !Hourly
522,1,WEST PLENUM,Zone Oscillating Temperatures Time [hr] !Hourly
523,1,EAST PLENUM,Zone Oscillating Temperatures Time [hr] !Hourly
524,1,Facility,Facility Any Zone Oscillating Temperatures Time [hr] !Hourly
525,1,WEST ZONE,Zone Heating Setpoint Not Met Time [hr] !Hourly
526,1,WEST ZONE,Zone Heating Setpoint Not Met While Occupied Time [hr] !Hourly
527,1,WEST ZONE,Zone Cooling Setpoint Not Met Time [hr] !Hourly
528,1,WEST ZONE,Zone Cooling Setpoint Not Met While Occupied Time [hr] !Hourly
529,1,EAST ZONE,Zone Heating Setpoint Not Met Time [hr] !Hourly
530,1,EAST ZONE,Zone Heating Setpoint Not Met While Occupied Time [hr] !Hourly
531,1,EAST ZONE,Zone Cooling Setpoint Not Met Time [hr] !Hourly
532,1,EAST ZONE,Zone Cooling Setpoint Not Met While Occupied Time [hr] !Hourly
533,1,WEST PLENUM,Zone Heating Setpoint Not Met Time [hr] !Hourly
534,1,WEST PLENUM,Zone Heating Setpoint Not Met While Occupied Time [hr] !Hourly
535,1,WEST PLENUM,Zone Cooling Setpoint Not Met Time [hr] !Hourly
536,1,WEST PLENUM,Zone Cooling Setpoint Not Met While Occupied Time [hr] !Hourly
537,1,EAST PLENUM,Zone Heating Setpoint Not Met Time [hr] !Hourly
538,1,EAST PLENUM,Zone Heating Setpoint Not Met While Occupied Time [hr] !Hourly
539,1,EAST PLENUM,Zone Cooling Setpoint Not Met Time [hr] !Hourly
540,1,EAST PLENUM,Zone Cooling Setpoint Not Met While Occupied Time [hr] !Hourly
541,1,WEST ZONE VAV SYSTEM,Zone Air Terminal VAV Damper Position [] !Hourly
542,1,WEST ZONE VAV SYSTEM,Zone Air Terminal Minimum Air Flow Fraction [] !Hourly
543,1,WEST ZONE VAV SYSTEM,Zone Air Terminal Outdoor Air Volume Flow Rate [m3/s] !Hourly
544,1,EAST ZONE VAV SYSTEM,Zone Air Terminal VAV Damper Position [] !Hourly
545,1,EAST ZONE VAV SYSTEM,Zone Air Terminal Minimum Air Flow Fraction [] !Hourly
546,1,EAST ZONE VAV SYSTEM,Zone Air Terminal Outdoor Air Volume Flow Rate [m3/s] !Hourly
599,1,WEST ZONE CW COOLING COIL,Cooling Coil Total Cooling Rate [W] !TimeStep
600,1,WEST ZONE CW COOLING COIL,Cooling Coil Sensible Cooling Rate [W] !TimeStep
603,1,EAST ZONE CW COOLING COIL,Cooling Coil Total Cooling Rate [W] !TimeStep
604,1,EAST ZONE CW COOLING COIL,Cooling Coil Sensible Cooling Rate [W] !TimeStep
605,1,WEST ZONE SUPPLY FAN,Fan Electric Power [W] !Hourly
606,1,WEST ZONE SUPPLY FAN,Fan Rise in Air Temperature [deltaC] !Hourly
607,1,WEST ZONE SUPPLY FAN,Fan Heat Gain to Air [W] !Hourly
608,1,WEST ZONE SUPPLY FAN,Fan Electric Energy [J] !Hourly
639,1,WEST ZONE SUPPLY FAN,Fan Air Mass Flow Rate [kg/s] !Hourly
640,1,EAST ZONE SUPPLY FAN,Fan Electric Power [W] !Hourly
641,1,EAST ZONE SUPPLY FAN,Fan Rise in Air Temperature [deltaC] !Hourly
642,1,EAST ZONE SUPPLY FAN,Fan Heat Gain to Air [W] !Hourly
643,1,EAST ZONE SUPPLY FAN,Fan Electric Energy [J] !Hourly
644,1,EAST ZONE SUPPLY FAN,Fan Air Mass Flow Rate [kg/s] !Hourly
645,1,WEST DATA CENTER IEC,Evaporative Cooler Total Stage Effectiveness [] !TimeStep
646,1,WEST DATA CENTER IEC,Evaporative Cooler Operating Mode Status [] !TimeStep
647,1,EAST DATA CENTER IEC,Evaporative Cooler Total Stage Effectiveness [] !TimeStep
648,1,EAST DATA CENTER IEC,Evaporative Cooler Operating Mode Status [] !TimeStep
649,1,WEST DATA CENTER DEC,Evaporative Cooler Stage Effectiveness [] !TimeStep
650,1,EAST DATA CENTER DEC,Evaporative Cooler Stage Effectiveness [] !TimeStep
662,1,WEST DATA CENTER IEC,Evaporative Cooler Electric Power [W] !TimeStep
663,1,WEST DATA CENTER IEC,Evaporative Cooler Water Volume [m3] !TimeStep
726,1,EAST DATA CENTER IEC,Evaporative Cooler Electric Power [W] !TimeStep
727,1,EAST DATA CENTER IEC,Evaporative Cooler Water Volume [m3] !TimeStep
730,1,WEST DATA CENTER DEC,Evaporative Cooler Electric Power [W] !TimeStep
731,1,WEST DATA CENTER DEC,Evaporative Cooler Water Volume [m3] !TimeStep
734,1,EAST DATA CENTER DEC,Evaporative Cooler Electric Power [W] !TimeStep
735,1,EAST DATA CENTER DEC,Evaporative Cooler Water Volume [m3] !TimeStep
737,1,WEST DX COOLING COIL,Cooling Coil Total Cooling Rate [W] !TimeStep
739,1,WEST DX COOLING COIL,Cooling Coil Sensible Cooling Rate [W] !TimeStep
741,1,EAST DX COOLING COIL,Cooling Coil Total Cooling Rate [W] !TimeStep
743,1,EAST DX COOLING COIL,Cooling Coil Sensible Cooling Rate [W] !TimeStep
766,1,CHILLER,Chiller Evaporator Cooling Rate [W] !Hourly
788,1,CHILLER,Chiller Evaporator Inlet Temperature [C] !Hourly
789,1,CHILLER,Chiller Evaporator Outlet Temperature [C] !Hourly
790,1,CHILLER,Chiller Condenser Heat Transfer Rate [W] !Hourly
802,1,CHILLER,Chiller Condenser Inlet Temperature [C] !Hourly
803,1,CHILLER,Chiller Condenser Outlet Temperature [C] !Hourly
892,1,WEST ZONE INLET NODE,System Node Temperature [C] !TimeStep
893,1,WEST ZONE INLET NODE,System Node Mass Flow Rate [kg/s] !TimeStep
894,1,WEST OUTSIDE AIR INLET NODE,System Node Temperature [C] !TimeStep
895,1,WEST OUTSIDE AIR INLET NODE,System Node Mass Flow Rate [kg/s] !TimeStep
896,1,WEST IEC SECONDARY AIR INLET NODE,System Node Temperature [C] !TimeStep
897,1,WEST IEC SECONDARY AIR INLET NODE,System Node Mass Flow Rate [kg/s] !TimeStep
898,1,WEST ZONE DEC OUTLET NODE,System Node Temperature [C] !TimeStep
899,1,WEST ZONE DEC OUTLET NODE,System Node Setpoint Temperature [C] !TimeStep
900,1,WEST ZONE IEC OUTLET NODE,System Node Temperature [C] !TimeStep
901,1,WEST ZONE IEC OUTLET NODE,System Node Setpoint Temperature [C] !TimeStep
902,1,WEST ZONE CCOIL AIR OUTLET NODE,System Node Temperature [C] !TimeStep
903,1,WEST ZONE CCOIL AIR OUTLET NODE,System Node Setpoint Temperature [C] !TimeStep
904,1,WEST AIR LOOP OUTLET NODE,System Node Temperature [C] !TimeStep
905,1,WEST AIR LOOP OUTLET NODE,System Node Setpoint Temperature [C] !TimeStep
906,1,EAST ZONE INLET NODE,System Node Temperature [C] !TimeStep
907,1,EAST ZONE INLET NODE,System Node Mass Flow Rate [kg/s] !TimeStep
908,1,EAST OUTSIDE AIR INLET NODE,System Node Temperature [C] !TimeStep
909,1,EAST OUTSIDE AIR INLET NODE,System Node Mass Flow Rate [kg/s] !TimeStep
910,1,EAST IEC SECONDARY AIR INLET NODE,System Node Temperature [C] !TimeStep
911,1,EAST IEC SECONDARY AIR INLET NODE,System Node Mass Flow Rate [kg/s] !TimeStep
912,1,EAST ZONE DEC OUTLET NODE,System Node Temperature [C] !TimeStep
913,1,EAST ZONE DEC OUTLET NODE,System Node Setpoint Temperature [C] !TimeStep
914,1,EAST ZONE IEC OUTLET NODE,System Node Temperature [C] !TimeStep
915,1,EAST ZONE IEC OUTLET NODE,System Node Setpoint Temperature [C] !TimeStep
916,1,EAST ZONE CCOIL AIR OUTLET NODE,System Node Temperature [C] !TimeStep
917,1,EAST ZONE CCOIL AIR OUTLET NODE,System Node Setpoint Temperature [C] !TimeStep
918,1,EAST AIR LOOP OUTLET NODE,System Node Temperature [C] !TimeStep
919,1,EAST AIR LOOP OUTLET NODE,System Node Setpoint Temperature [C] !TimeStep
920,1,WEST ZONE RETURN AIR NODE,System Node Temperature [C] !TimeStep
921,1,WEST ZONE RETURN AIR NODE,System Node Mass Flow Rate [kg/s] !TimeStep
922,1,WEST ZONE MIXED AIR NODE,System Node Temperature [C] !TimeStep
923,1,WEST ZONE MIXED AIR NODE,System Node Mass Flow Rate [kg/s] !TimeStep
924,1,WEST ZONE SUPPLY FAN OUTLET NODE,System Node Temperature [C] !TimeStep
925,1,EAST ZONE SUPPLY FAN OUTLET NODE,System Node Temperature [C] !TimeStep
926,1,WEST IEC SECONDARY AIR OUTLET NODE,System Node Temperature [C] !TimeStep
927,1,WEST IEC SECONDARY AIR OUTLET NODE,System Node Mass Flow Rate [kg/s] !TimeStep
End of Data Dictionary
1,WHOLEYEARDAY,  37.62,-122.40,  -8.00,   2.00
2,1, 1, 1, 0, 1, 0.00,15.00,Tuesday
6,6.825
239,1.0300298866314462
312,21.973997751258055
313,33.912824837547137
349,22.710793599032554
350,32.042359812773849
599,0.0
600,0.0
603,0.0
604,0.0
645,0.1367210423220337
647,0.0
649,0.3733333333333333
650,0.6999999999999997
662,4.015397458470012
663,0.0
726,0.0
727,0.0
730,9.86079292216576
731,0.0031822482005120676
734,1.9090926160826259
735,0.0017864310284691216
737,0.0
739,0.0
741,0.0
743,0.0
892,15.143935156301904
893,2.656554622838923
894,6.825
895,0.8902429569914117
896,6.825
897,0.4051446213077425
898,15.289834391910201
899,18.6629656
900,14.074971487699666
901,18.6629656
902,14.074971487699666
903,18.6629656
904,14.074971487699666
905,18.6629656
906,20.3819239740582
907,6.346401885311303
908,6.825
909,0.16691464415598412
910,6.825
911,0.0
912,22.00655499789095
913,33.77847693333334
914,22.00655499789095
915,33.77847693333334
916,22.00655499789095
917,33.77847693333334
918,22.00655499789095
919,33.77847693333334
920,22.015521497776886
921,2.656554622838923
922,16.911549885420013
923,2.656554622838923
924,17.307851837751348
925,22.470791621202929
926,8.716696047469549
927,0.4051446213077425
646,0.26666666666666669
648,0.0
2,1, 1, 1, 0, 1,15.00,30.00,Tuesday
6,6.95
239,1.0660232010397182
312,25.359651888141597
313,30.39687047230701
349,32.62240269929716
350,19.773430219521875
599,0.0
600,0.0
603,0.0
604,0.0
645,0.14684978695985413
647,0.03991446502711549
649,0.41999999999999995
650,0.6533333333333331
662,22.78508185403876
663,0.0
726,12.326528841509808
727,0.0
730,7.877419103224412
731,0.0029861514954812329
734,2.1122527968178739
735,0.0022381203118275485
737,0.0
739,0.0
741,0.0
743,0.0
892,15.58715754228299
893,2.6467130228389239
894,6.9499999999999979
895,1.148951793437214
896,6.9499999999999979
897,0.653118751351266
898,15.577499616228798
899,17.968311466666667
900,14.225040338277966
901,17.968311466666667
902,14.225040338277966
903,17.968311466666667
904,14.225040338277966
905,17.968311466666667
906,26.472027837223295
907,5.819099080650144
908,6.9499999999999979
909,0.21245091762901137
910,6.9499999999999979
911,0.2960072529984154
912,29.695258650874679
913,36.564954066666668
914,29.153945682184785
915,36.564954066666668
916,29.153945682184785
917,36.564954066666668
918,29.153945682184785
919,36.564954066666668
920,25.23869988638096
921,2.6467130228389239
922,16.942812602888677
923,2.6467130228389239
924,17.330376185402448
925,30.4156719037369
926,8.918435936288182
927,0.653118751351266
646,0.26666666666666669
648,0.06666666666666667
2,1, 1, 1, 0, 1,30.00,45.00,Tuesday
6,7.075
239,1.0340116034271854
312,21.57553199559459
313,42.27794513876091
349,40.068811015248588
350,15.385718716320126
599,0.0
600,0.0
603,0.0
604,0.0
645,0.1914245635971719
647,0.06599834702624827
649,0.27999999999999999
650,0.5133333333333332
662,26.292067321680947
663,0.0
726,10.366367998581472
727,0.0
730,9.227926092391357
731,0.003532946550168975
734,4.796152166174945
735,0.006202384586068829
737,0.0
739,0.0
741,0.0
743,0.0
892,14.195391280190659
893,3.0427794000000007
894,7.075
895,1.1588285594513506
896,7.075
897,0.7833513364060659
898,14.134876558557723
899,16.806580333333334
900,12.54150848339105
901,16.806580333333334
902,12.54150848339105
903,16.806580333333334
904,12.54150848339105
905,16.806580333333334
906,28.74033267501085
907,6.6456569256363748
908,7.075
909,1.1647678059634848
910,7.075
911,0.4577416553652551
912,32.22904559671217
913,34.105279333333339
914,30.435244086535858
915,34.105279333333339
916,30.435244086535858
917,34.105279333333339
918,30.435244086535858
919,34.105279333333339
920,21.87239991479549
921,3.0427794000000007
922,15.419335199759776
923,3.0427794000000007
924,15.776198568018849
925,34.103709842552309
926,9.752890484615892
927,0.7833513364060659
646,0.39999999999999999
648,0.26666666666666669
2,1, 1, 1, 0, 1,45.00,60.00,Tuesday
6,7.2
239,1.0247936785586738
312,24.33611034882434
313,36.534432588395208
349,45.062989397531847
350,12.384413424500087
599,0.0
600,0.0
603,0.0
604,0.0
645,0.09363621545518497
647,0.0640889038789341
649,0.41999999999999995
650,0.5133333333333332
662,5.016790262296562
663,0.0
726,9.966322351979489
727,0.0
730,7.084334054834729
731,0.001591296845123054
734,2.1897430584852306
735,0.0023200821108630678
737,0.0
739,0.0
741,0.0
743,0.0
892,15.82646288555441
893,2.8436836000000005
894,7.200000000000003
895,1.4622058991289456
896,7.200000000000003
897,0.3289468730510909
898,15.784186074136575
899,17.736465333333336
900,15.093197617650745
901,17.736465333333336
902,15.093197617650745
903,17.736465333333336
904,15.093197617650745
905,17.736465333333336
906,29.770780825187239
907,5.678136840325071
908,7.200000000000003
909,1.4334570061595036
910,7.200000000000003
911,0.5156270198123367
912,34.18215200606065
913,35.385328200000007
914,32.079491450265759
915,35.385328200000007
916,32.079491450265759
917,35.385328200000007
918,32.079491450265759
919,35.385328200000007
920,24.142936517051106
921,2.8436836000000005
922,16.584685392416504
923,2.8436836000000005
924,16.937970862423517
925,35.09701802216501
926,8.417844076088216
927,0.3289468730510909
646,0.2
648,0.2
2,1, 1, 1, 0, 1, 0.00,60.00,Tuesday
133,13851.892331041643
134,10134.381433089999
135,2398.6273764131633
136,13936.849545599995
137,10219.334400000002
138,2398.6273764131633
139,26384.901140544804
173,3.6941025358541186
174,14.95427869372735
175,6.736996241829241
176,0.5815317341268751
177,22.74142168982858
178,0.0956510476058254
179,1.0
180,0.0
181,0.0
182,0.0
183,0.0
184,0.0
185,1.0
186,0.0
187,0.0
188,0.0
189,0.0
190,0.0
191,-19.418468265873128
192,13851.892331041643
193,10134.381433089999
194,2398.6273764131633
195,13936.849545599995
196,10219.334400000002
197,2398.6273764131633
198,26384.901140544804
199,39773.091443424666
200,35625.04568714032
201,7539.813713056497
202,15546.354479999996
203,11399.520000000002
204,7539.813713056497
205,82937.95084362148
209,12.314543634683009
210,26.68824575765223
211,6.107850435692815
212,0.2994705918292102
213,34.120991786558089
214,0.07552469141122288
215,1.0
216,0.25
217,0.0
218,0.0
219,0.0
220,0.0
221,1.0
222,0.17364703099420354
223,0.0
224,0.0
225,0.0
226,0.0
227,-19.70052940817079
228,39773.091443424666
229,35625.04568714032
230,7539.813713056497
231,15546.354479999996
232,11399.520000000002
233,7539.813713056497
234,82937.95084362148
315,20.0
316,23.0
352,20.0
353,23.0
387,0.0
388,0.0
422,0.0
423,0.0
525,0.0
526,0.0
527,0.5
528,0.0
529,0.0
530,0.0
531,0.75
532,0.0
533,0.0
534,0.0
535,0.0
536,0.0
537,0.0
538,0.0
539,0.0
540,0.0
314,4.0
351,4.0
386,0.0
421,0.0
517,109351.25198416627
518,3197.96764591798
519,112549.21963008426
520,0.0
521,0.0
522,0.03333333333333333
523,0.08333333333333333
524,0.11666666666666667
541,0.44844296490071985
542,0.4
543,0.9676369293018621
544,0.8759921588906223
545,0.4
546,0.6182585183915981
605,1089.8080900269206
606,0.37350359327779938
607,980.8272810242285
608,3923309.124096914
639,2.7974326614194617
640,2074.2029886663768
641,0.2978705373290078
642,1866.782689799739
643,7467130.759198954
644,6.122323682980722
766,0.0
788,10.204275065416635
789,10.204275065416635
790,0.0
802,9.932642824349
803,9.932642824349
2,1, 1, 1, 0, 2, 0.00,15.00,Tuesday
6,7.2
239,1.0217795240062813
312,24.17427467764965
313,37.745484897215799
349,44.9811726262923
350,11.768021830997906
599,0.0
600,0.0
603,22.519948170325937
604,22.519948170321073
645,0.054711594996367057
647,0.08647969258823618
649,0.6461538461538459
650,0.32307692307692306
662,0.030095105317900728
663,0.0
726,4.9055260970669
727,0.0
730,12.06586040503413
731,0.0031075268121417648
734,0.0
735,0.0
737,0.0
739,0.0
741,0.0
743,0.0
892,17.02404343547252
893,2.44661823076923
894,7.199999999999999
895,0.7423147195734521
896,7.199999999999999
897,0.10005839422445297
898,16.975529931857819
899,19.011708999999997
900,16.642896304405057
901,19.011708999999997
902,16.642896304405057
903,19.011708999999997
904,16.642896304405057
905,19.011708999999997
906,31.997661196880889
907,5.95784328805468
908,7.199999999999999
909,1.4368111537234106
910,7.199999999999999
911,0.47706717741333445
912,36.466784841548577
913,36.76625476923076
914,33.833743961159019
915,36.76625476923076
916,33.833743961159019
917,36.76625476923076
918,33.83057722903167
919,36.76625476923076
920,24.22903854480063
921,2.44661823076923
922,18.721290972123265
923,2.44661823076923
924,19.116837971009006
925,36.466784841548577
926,9.869859012068096
927,0.10005839422445297
646,0.3076923076923076
648,0.3076923076923076
2,1, 1, 1, 0, 2,15.00,30.00,Tuesday
6,7.2
239,1.027041286524166
312,25.367804506433616
313,34.53236153665588
349,46.31393450996175
350,10.483023704668268
599,0.0
600,0.0
603,7.3591701435038729
604,7.359170143501487
645,0.17704802137025398
647,0.05705478690948512
649,0.32666666666666668
650,0.41999999999999995
662,196.71303848592874
663,0.0
726,5.289483931171699
727,0.0
730,6.065704827216549
731,0.002296966807042619
734,0.8183146411148464
735,0.0014841198486013094
737,2121.6249417789545
739,152.5793701823687
741,0.0
743,0.0
892,15.177979888178161
893,2.7880044666666676
894,7.200000000000003
895,1.3358443266089535
896,7.200000000000003
897,1.4590034980209775
898,15.531790545871458
899,17.14558106666667
900,13.86099141789186
901,17.14558106666667
902,13.811176153837398
903,17.14558106666667
904,13.811176153837398
905,17.14558106666667
906,32.96653326269924
907,6.316448916314058
908,7.200000000000003
909,1.540559615873688
910,7.200000000000003
911,0.40131251837608186
912,36.66679663095981
913,36.74472926666667
914,34.954604189764179
915,36.74472926666667
916,34.954604189764179
917,36.74472926666667
918,34.953516002862588
919,36.74472926666667
920,25.072359075206067
921,2.7880044666666676