Program Version,EnergyPlus, Version 8.8.0-Unknown, YMD=2019.07.16 14:15
1,5,Environment Title[],Latitude[deg],Longitude[deg],Time Zone[],Elevation[m]
2,6,Day of Simulation[],Month[],Day of Month[],DST Indicator[1=yes 0=no],Hour[],StartMinute[],EndMinute[],DayType
3,3,Cumulative Day of Simulation[],Month[],Day of Month[],DST Indicator[1=yes 0=no],DayType  ! When Daily Report Variables Requested
4,2,Cumulative Days of Simulation[],Month[]  ! When Monthly Report Variables Requested
5,1,Cumulative Days of Simulation[] ! When Run Period Report Variables Requested
6,1,Environment,Site Outdoor Air Drybulb Temperature [C] !TimeStep
133,1,WESTDATACENTER_EQUIP,ITE CPU Electric Power [W] !Hourly
134,1,WESTDATACENTER_EQUIP,ITE Fan Electric Power [W] !Hourly
135,1,WESTDATACENTER_EQUIP,ITE UPS Electric Power [W] !Hourly
136,1,WESTDATACENTER_EQUIP,ITE CPU Electric Power at Design Inlet Conditions [W] !Hourly
137,1,WESTDATACENTER_EQUIP,ITE Fan Electric Power at Design Inlet Conditions [W] !Hourly
138,1,WESTDATACENTER_EQUIP,ITE UPS Heat Gain to Zone Rate [W] !Hourly
139,1,WESTDATACENTER_EQUIP,ITE Total Heat Gain to Zone Rate [W] !Hourly
173,1,WESTDATACENTER_EQUIP,ITE Standard Density Air Volume Flow Rate [m3/s] !Hourly
174,1,WESTDATACENTER_EQUIP,ITE Air Inlet Dry-Bulb Temperature [C] !Hourly
175,1,WESTDATACENTER_EQUIP,ITE Air Inlet Dewpoint Temperature [C] !Hourly
176,1,WESTDATACENTER_EQUIP,ITE Air Inlet Relative Humidity [%] !Hourly
177,1,WESTDATACENTER_EQUIP,ITE Air Outlet Dry-Bulb Temperature [C] !Hourly
178,1,WESTDATACENTER_EQUIP,ITE Supply Heat Index [] !Hourly
179,1,WESTDATACENTER_EQUIP,ITE Air Inlet Operating Range Exceeded Time [hr] !Hourly
180,1,WESTDATACENTER_EQUIP,ITE Air Inlet Dry-Bulb Temperature Above Operating Range Time [hr] !Hourly
181,1,WESTDATACENTER_EQUIP,ITE Air Inlet Dry-Bulb Temperature Below Operating Range Time [hr] !Hourly
182,1,WESTDATACENTER_EQUIP,ITE Air Inlet Dewpoint Temperature Above Operating Range Time [hr] !Hourly
183,1,WESTDATACENTER_EQUIP,ITE Air Inlet Dewpoint Temperature Below Operating Range Time [hr] !Hourly
184,1,WESTDATACENTER_EQUIP,ITE Air Inlet Relative Humidity Above Operating Range Time [hr] !Hourly
185,1,WESTDATACENTER_EQUIP,ITE Air Inlet Relative Humidity Below Operating Range Time [hr] !Hourly
186,1,WESTDATACENTER_EQUIP,ITE Air Inlet Dry-Bulb Temperature Difference Above Operating Range [deltaC] !Hourly
187,1,WESTDATACENTER_EQUIP,ITE Air Inlet Dry-Bulb Temperature Difference Below Operating Range [deltaC] !Hourly
188,1,WESTDATACENTER_EQUIP,ITE Air Inlet Dewpoint Temperature Difference Above Operating Range [deltaC] !Hourly
189,1,WESTDATACENTER_EQUIP,ITE Air Inlet Dewpoint Temperature Difference Below Operating Range [deltaC] !Hourly
190,1,WESTDATACENTER_EQUIP,ITE Air Inlet Relative Humidity Difference Above Operating Range [%] !Hourly
191,1,WESTDATACENTER_EQUIP,ITE Air Inlet Relative Humidity Difference Below Operating Range [%] !Hourly
192,1,WEST ZONE,Zone ITE CPU Electric Power [W] !Hourly
193,1,WEST ZONE,Zone ITE Fan Electric Power [W] !Hourly
194,1,WEST ZONE,Zone ITE UPS Electric Power [W] !Hourly
195,1,WEST ZONE,Zone ITE CPU Electric Power at Design Inlet Conditions [W] !Hourly
196,1,WEST ZONE,Zone ITE Fan Electric Power at Design Inlet Conditions [W] !Hourly
197,1,WEST ZONE,Zone ITE UPS Heat Gain to Zone Rate [W] !Hourly
198,1,WEST ZONE,Zone ITE Total Heat Gain to Zone Rate [W] !Hourly
199,1,EASTDATACENTER_EQUIP,ITE CPU Electric Power [W] !Hourly
200,1,EASTDATACENTER_EQUIP,ITE Fan Electric Power [W] !Hourly
201,1,EASTDATACENTER_EQUIP,ITE UPS Electric Power [W] !Hourly
202,1,EASTDATACENTER_EQUIP,ITE CPU Electric Power at Design Inlet Conditions [W] !Hourly
203,1,EASTDATACENTER_EQUIP,ITE Fan Electric Power at Design Inlet Conditions [W] !Hourly
204,1,EASTDATACENTER_EQUIP,ITE UPS Heat Gain to Zone Rate [W] !Hourly
205,1,EASTDATACENTER_EQUIP,ITE Total Heat Gain to Zone Rate [W] !Hourly
209,1,EASTDATACENTER_EQUIP,ITE Standard Density Air Volume Flow Rate [m3/s] !Hourly
210,1,EASTDATACENTER_EQUIP,ITE Air Inlet Dry-Bulb Temperature [C] !Hourly
211,1,EASTDATACENTER_EQUIP,ITE Air Inlet Dewpoint Temperature [C] !Hourly
212,1,EASTDATACENTER_EQUIP,ITE Air Inlet Relative Humidity [%] !Hourly
213,1,EASTDATACENTER_EQUIP,ITE Air Outlet Dry-Bulb Temperature [C] !Hourly
214,1,EASTDATACENTER_EQUIP,ITE Supply Heat Index [] !Hourly
215,1,EASTDATACENTER_EQUIP,ITE Air Inlet Operating Range Exceeded Time [hr] !Hourly
216,1,EASTDATACENTER_EQUIP,ITE Air Inlet Dry-Bulb Temperature Above Operating Range Time [hr] !Hourly
217,1,EASTDATACENTER_EQUIP,ITE Air Inlet Dry-Bulb Temperature Below Operating Range Time [hr] !Hourly
218,1,EASTDATACENTER_EQUIP,ITE Air Inlet Dewpoint Temperature Above Operating Range Time [hr] !Hourly
219,1,EASTDATACENTER_EQUIP,ITE Air Inlet Dewpoint Temperature Below Operating Range Time [hr] !Hourly
220,1,EASTDATACENTER_EQUIP,ITE Air Inlet Relative Humidity Above Operating Range Time [hr] !Hourly
221,1,EASTDATACENTER_EQUIP,ITE Air Inlet Relative Humidity Below Operating Range Time [hr] !Hourly
222,1,EASTDATACENTER_EQUIP,ITE Air Inlet Dry-Bulb Temperature Difference Above Operating Range [deltaC] !Hourly
223,1,EASTDATACENTER_EQUIP,ITE Air Inlet Dry-Bulb Temperature Difference Below Operating Range [deltaC] !Hourly
224,1,EASTDATACENTER_EQUIP,ITE Air Inlet Dewpoint Temperature Difference Above Operating Range [deltaC] !Hourly
225,1,EASTDATACENTER_EQUIP,ITE Air Inlet Dewpoint Temperature Difference Below Operating Range [deltaC] !Hourly
226,1,EASTDATACENTER_EQUIP,ITE Air Inlet Relative Humidity Difference Above Operating Range [%] !Hourly
227,1,EASTDATACENTER_EQUIP,ITE Air Inlet Relative Humidity Difference Below Operating Range [%] !Hourly
228,1,EAST ZONE,Zone ITE CPU Electric Power [W] !Hourly
229,1,EAST ZONE,Zone ITE Fan Electric Power [W] !Hourly
230,1,EAST ZONE,Zone ITE UPS Electric Power [W] !Hourly
231,1,EAST ZONE,Zone ITE CPU Electric Power at Design Inlet Conditions [W] !Hourly
232,1,EAST ZONE,Zone ITE Fan Electric Power at Design Inlet Conditions [W] !Hourly
233,1,EAST ZONE,Zone ITE UPS Heat Gain to Zone Rate [W] !Hourly
234,1,EAST ZONE,Zone ITE Total Heat Gain to Zone Rate [W] !Hourly
239,1,EMS,Power Utilization Effectiveness [] !TimeStep
312,1,WEST ZONE,Zone Air Temperature [C] !TimeStep
313,1,WEST ZONE,Zone Air Relative Humidity [%] !TimeStep
314,1,WEST ZONE,Zone Thermostat Control Type [] !Hourly
315,1,WEST ZONE,Zone Thermostat Heating Setpoint Temperature [C] !Hourly
316,1,WEST ZONE,Zone Thermostat Cooling Setpoint Temperature [C] !Hourly
349,1,EAST ZONE,Zone Air Temperature [C] !TimeStep
350,1,EAST ZONE,Zone Air Relative Humidity [%] !TimeStep
351,1,EAST ZONE,Zone Thermostat Control Type [] !Hourly
352,1,EAST ZONE,Zone Thermostat Heating Setpoint Temperature [C] !Hourly
353,1,EAST ZONE,Zone Thermostat Cooling Setpoint Temperature [C] !Hourly
386,1,WEST PLENUM,Zone Thermostat Control Type [] !Hourly
387,1,WEST PLENUM,Zone Thermostat Heating Setpoint Temperature [C] !Hourly
388,1,WEST PLENUM,Zone Thermostat Cooling Setpoint Temperature [C] !Hourly
421,1,EAST PLENUM,Zone Thermostat Control Type [] !Hourly
422,1,EAST PLENUM,Zone Thermostat Heating Setpoint Temperature [C] !Hourly
423,1,EAST PLENUM,Zone Thermostat Cooling Setpoint Temperature [C] !Hourly
517,1,Whole Building,Facility Total Building Electric Demand Power [W] !Hourly
518,1,Whole Building,Facility Total HVAC Electric Demand Power [W] !Hourly
519,1,Whole Building,Facility Total Electric Demand Power [W] !Hourly
520,1,WEST ZONE,Zone Oscillating Temperatures Time [hr] !Hourly
521,1,EAST ZONE,Zone Oscillating Temperatures Time [hr] !Hourly
522,1,WEST PLENUM,Zone Oscillating Temperatures Time [hr] !Hourly
523,1,EAST PLENUM,Zone Oscillating Temperatures Time [hr] !Hourly
524,1,Facility,Facility Any Zone Oscillating Temperatures Time [hr] !Hourly
525,1,WEST ZONE,Zone Heating Setpoint Not Met Time [hr] !Hourly
526,1,WEST ZONE,Zone Heating Setpoint Not Met While Occupied Time [hr] !Hourly
527,1,WEST ZONE,Zone Cooling Setpoint Not Met Time [hr] !Hourly
528,1,WEST ZONE,Zone Cooling Setpoint Not Met While Occupied Time [hr] !Hourly
529,1,EAST ZONE,Zone Heating Setpoint Not Met Time [hr] !Hourly
530,1,EAST ZONE,Zone Heating Setpoint Not Met While Occupied Time [hr] !Hourly
531,1,EAST ZONE,Zone Cooling Setpoint Not Met Time [hr] !Hourly
532,1,EAST ZONE,Zone Cooling Setpoint Not Met While Occupied Time [hr] !Hourly
533,1,WEST PLENUM,Zone Heating Setpoint Not Met Time [hr] !Hourly
534,1,WEST PLENUM,Zone Heating Setpoint Not Met While Occupied Time [hr] !Hourly
535,1,WEST PLENUM,Zone Cooling Setpoint Not Met Time [hr] !Hourly
536,1,WEST PLENUM,Zone Cooling Setpoint Not Met While Occupied Time [hr] !Hourly
537,1,EAST PLENUM,Zone Heating Setpoint Not Met Time [hr] !Hourly
538,1,EAST PLENUM,Zone Heating Setpoint Not Met While Occupied Time [hr] !Hourly
539,1,EAST PLENUM,Zone Cooling Setpoint Not Met Time [hr] !Hourly
540,1,EAST PLENUM,Zone Cooling Setpoint Not Met While Occupied Time [hr] !Hourly
541,1,WEST ZONE VAV SYSTEM,Zone Air Terminal VAV Damper Position [] !Hourly
542,1,WEST ZONE VAV SYSTEM,Zone Air Terminal Minimum Air Flow Fraction [] !Hourly
543,1,WEST ZONE VAV SYSTEM,Zone Air Terminal Outdoor Air Volume Flow Rate [m3/s] !Hourly
544,1,EAST ZONE VAV SYSTEM,Zone Air Terminal VAV Damper Position [] !Hourly
545,1,EAST ZONE VAV SYSTEM,Zone Air Terminal Minimum Air Flow Fraction [] !Hourly
546,1,EAST ZONE VAV SYSTEM,Zone Air Terminal Outdoor Air Volume Flow Rate [m3/s] !Hourly
599,1,WEST ZONE CW COOLING COIL,Cooling Coil Total Cooling Rate [W] !TimeStep
600,1,WEST ZONE CW COOLING COIL,Cooling Coil Sensible Cooling Rate [W] !TimeStep
603,1,EAST ZONE CW COOLING COIL,Cooling Coil Total Cooling Rate [W] !TimeStep
604,1,EAST ZONE CW COOLING COIL,Cooling Coil Sensible Cooling Rate [W] !TimeStep
605,1,WEST ZONE SUPPLY FAN,Fan Electric Power [W] !Hourly
606,1,WEST ZONE SUPPLY FAN,Fan Rise in Air Temperature [deltaC] !Hourly
607,1,WEST ZONE SUPPLY FAN,Fan Heat Gain to Air [W] !Hourly
608,1,WEST ZONE SUPPLY FAN,Fan Electric Energy [J] !Hourly
639,1,WEST ZONE SUPPLY FAN,Fan Air Mass Flow Rate [kg/s] !Hourly
640,1,EAST ZONE SUPPLY FAN,Fan Electric Power [W] !Hourly
641,1,EAST ZONE SUPPLY FAN,Fan Rise in Air Temperature [deltaC] !Hourly
642,1,EAST ZONE SUPPLY FAN,Fan Heat Gain to Air [W] !Hourly
643,1,EAST ZONE SUPPLY FAN,Fan Electric Energy [J] !Hourly
644,1,EAST ZONE SUPPLY FAN,Fan Air Mass Flow Rate [kg/s] !Hourly
645,1,WEST DATA CENTER IEC,Evaporative Cooler Total Stage Effectiveness [] !TimeStep
646,1,WEST DATA CENTER IEC,Evaporative Cooler Operating Mode Status [] !TimeStep
647,1,EAST DATA CENTER IEC,Evaporative Cooler Total Stage Effectiveness [] !TimeStep
648,1,EAST DATA CENTER IEC,Evaporative Cooler Operating Mode Status [] !TimeStep
649,1,WEST DATA CENTER DEC,Evaporative Cooler Stage Effectiveness [] !TimeStep
650,1,EAST DATA CENTER DEC,Evaporative Cooler Stage Effectiveness [] !TimeStep
662,1,WEST DATA CENTER IEC,Evaporative Cooler Electric Power [W] !TimeStep
663,1,WEST DATA CENTER IEC,Evaporative Cooler Water Volume [m3] !TimeStep
726,1,EAST DATA CENTER IEC,Evaporative Cooler Electric Power [W] !TimeStep
727,1,EAST DATA CENTER IEC,Evaporative Cooler Water Volume [m3] !TimeStep
730,1,WEST DATA CENTER DEC,Evaporative Cooler Electric Power [W] !TimeStep
731,1,WEST DATA CENTER DEC,Evaporative Cooler Water Volume [m3] !TimeStep
734,1,EAST DATA CENTER DEC,Evaporative Cooler Electric Power [W] !TimeStep
735,1,EAST DATA CENTER DEC,Evaporative Cooler Water Volume [m3] !TimeStep
737,1,WEST DX COOLING COIL,Cooling Coil Total Cooling Rate [W] !TimeStep
739,1,WEST DX COOLING COIL,Cooling Coil Sensible Cooling Rate [W] !TimeStep
741,1,EAST DX COOLING COIL,Cooling Coil Total Cooling Rate [W] !TimeStep
743,1,EAST DX COOLING COIL,Cooling Coil Sensible Cooling Rate [W] !TimeStep
766,1,CHILLER,Chiller Evaporator Cooling Rate [W] !Hourly
788,1,CHILLER,Chiller Evaporator Inlet Temperature [C] !Hourly
789,1,CHILLER,Chiller Evaporator Outlet Temperature [C] !Hourly
790,1,CHILLER,Chiller Condenser Heat Transfer Rate [W] !Hourly
802,1,CHILLER,Chiller Condenser Inlet Temperature [C] !Hourly
803,1,CHILLER,Chiller Condenser Outlet Temperature [C] !Hourly
892,1,WEST ZONE INLET NODE,System Node Temperature [C] !TimeStep
893,1,WEST ZONE INLET NODE,System Node Mass Flow Rate [kg/s] !TimeStep
894,1,WEST OUTSIDE AIR INLET NODE,System Node Temperature [C] !TimeStep
895,1,WEST OUTSIDE AIR INLET NODE,System Node Mass Flow Rate [kg/s] !TimeStep
896,1,WEST IEC SECONDARY AIR INLET NODE,System Node Temperature [C] !TimeStep
897,1,WEST IEC SECONDARY AIR INLET NODE,System Node Mass Flow Rate [kg/s] !TimeStep
898,1,WEST ZONE DEC OUTLET NODE,System Node Temperature [C] !TimeStep
899,1,WEST ZONE DEC OUTLET NODE,System Node Setpoint Temperature [C] !TimeStep
900,1,WEST ZONE IEC OUTLET NODE,System Node Temperature [C] !TimeStep
901,1,WEST ZONE IEC OUTLET NODE,System Node Setpoint Temperature [C] !TimeStep
902,1,WEST ZONE CCOIL AIR OUTLET NODE,System Node Temperature [C] !TimeStep
903,1,WEST ZONE CCOIL AIR OUTLET NODE,System Node Setpoint Temperature [C] !TimeStep
904,1,WEST AIR LOOP OUTLET NODE,System Node Temperature [C] !TimeStep
905,1,WEST AIR LOOP OUTLET NODE,System Node Setpoint Temperature [C] !TimeStep
906,1,EAST ZONE INLET NODE,System Node Temperature [C] !TimeStep
907,1,EAST ZONE INLET NODE,System Node Mass Flow Rate [kg/s] !TimeStep
908,1,EAST OUTSIDE AIR INLET NODE,System Node Temperature [C] !TimeStep
909,1,EAST OUTSIDE AIR INLET NODE,System Node Mass Flow Rate [kg/s] !TimeStep
910,1,EAST IEC SECONDARY AIR INLET NODE,System Node Temperature [C] !TimeStep
911,1,EAST IEC SECONDARY AIR INLET NODE,System Node Mass Flow Rate [kg/s] !TimeStep
912,1,EAST ZONE DEC OUTLET NODE,System Node Temperature [C] !TimeStep
913,1,EAST ZONE DEC OUTLET NODE,System Node Setpoint Temperature [C] !TimeStep
914,1,EAST ZONE IEC OUTLET NODE,System Node Temperature [C] !TimeStep
915,1,EAST ZONE IEC OUTLET NODE,System Node Setpoint Temperature [C] !TimeStep
916,1,EAST ZONE CCOIL AIR OUTLET NODE,System Node Temperature [C] !TimeStep
917,1,EAST ZONE CCOIL AIR OUTLET NODE,System Node Setpoint Temperature [C] !TimeStep
918,1,EAST AIR LOOP OUTLET NODE,System Node Temperature [C] !TimeStep
919,1,EAST AIR LOOP OUTLET NODE,System Node Setpoint Temperature [C] !TimeStep
920,1,WEST ZONE RETURN AIR NODE,System Node Temperature [C] !TimeStep
921,1,WEST ZONE RETURN AIR NODE,System Node Mass Flow Rate [kg/s] !TimeStep
922,1,WEST ZONE MIXED AIR NODE,System Node Temperature [C] !TimeStep
923,1,WEST ZONE MIXED AIR NODE,System Node Mass Flow Rate [kg/s] !TimeStep
924,1,WEST ZONE SUPPLY FAN OUTLET NODE,System Node Temperature [C] !TimeStep
925,1,EAST ZONE SUPPLY FAN OUTLET NODE,System Node Temperature [C] !TimeStep
926,1,WEST IEC SECONDARY AIR OUTLET NODE,System Node Temperature [C] !TimeStep
927,1,WEST IEC SECONDARY AIR OUTLET NODE,System Node Mass Flow Rate [kg/s] !TimeStep
End of Data Dictionary
1,WHOLEYEARDAY,  37.62,-122.40,  -8.00,   2.00
2,1, 1, 1, 0, 1, 0.00,15.00,Tuesday
6,6.825
239,1.0300298866314462
312,24.189400492565555
313,28.21746160028411
349,24.435695122639158
350,27.024595287911756
599,0.0
600,0.0
603,0.0
604,0.0
645,0.08309365897305844
647,0.0
649,0.6066666666666665
650,0.6999999999999997
662,2.3898620716304177
663,0.0
726,0.0
727,0.0
730,8.855033985596532
731,0.003929982389526064
734,1.5205112618026114
735,0.00035397955291290267
737,0.0
739,0.0
741,0.0
743,0.0
892,18.807868305242264
893,2.929477156172257
894,6.825
895,0.3189935489023206
896,6.825
897,0.27756199944050116
898,20.138261072936744
899,26.384074266666667
900,19.514643392276147
901,26.384074266666667
902,19.514643392276147
903,26.384074266666667
904,19.514643392276147
905,26.384074266666667
906,21.25004117402992
907,4.143033368997246
908,6.825
909,0.08767228013639204
910,6.825
911,0.0
912,23.79508525101451
913,36.23490206666667
914,23.79508525101451
915,36.23490206666667
916,23.79508525101451
917,36.23490206666667
918,23.79508525101451
919,36.23490206666667
920,24.11974858063841
921,2.929477156172257
922,21.67996538764767
923,2.929477156172257
924,22.057676098279008
925,24.16276591962507
926,8.897145962274053
927,0.27756199944050116
646,0.26666666666666669
648,0.0
2,1, 1, 1, 0, 1,15.00,30.00,Tuesday
6,6.95
239,1.078314713262515
312,24.956438861883116
313,34.009937638059657
349,36.97472422747331
350,14.119929918038033
599,0.0
600,0.0
603,0.0
604,0.0
645,0.255126112999775
647,0.0
649,0.3733333333333333
650,0.6999999999999997
662,198.7059327594487
663,0.0
726,0.0
727,0.0
730,14.0
731,0.005219545856215414
734,1.6307140584310034
735,0.002852353562827921
737,0.0
739,0.0
741,0.0
743,0.0
892,13.587059168316295
893,3.4106635561722569
894,6.9499999999999979
895,1.3605548005244717
896,6.9499999999999979
897,1.6715414493780508
898,15.17883110156719
899,21.176089800000005
900,12.508146026578232
901,21.176089800000005
902,12.508146026578232
903,21.176089800000005
904,12.508146026578232
905,21.176089800000005
906,28.84411864341477
907,2.993941635663913
908,6.9499999999999979
909,0.0687306085084784
910,6.9499999999999979
911,0.0
912,34.29971765139794
913,39.195217666666668
914,34.29971765139794
915,39.195217666666668
916,34.29971765139794
917,39.195217666666668
918,34.29971765139794
919,39.195217666666668
920,24.823034011993064
921,3.4106635561722569
922,17.883392662141526
923,3.4106635561722569
924,18.232167419839614
925,35.09446608414911
926,10.35842714575398
927,1.6715414493780508
646,0.4666666666666666
648,0.0
2,1, 1, 1, 0, 1,30.00,45.00,Tuesday
6,7.075
239,1.0167242013950289
312,27.27981500726543
313,30.325368172995025
349,48.20651876755263
350,8.89072748969194
599,0.0
600,0.0
603,14.401071384659034
604,14.401071384659034
645,0.11995658677117999
647,0.0
649,0.46666666666666659
650,0.6533333333333331
662,109.38396577333814
663,0.0
726,0.0
727,0.0
730,4.900110231764524
731,0.001705955368657371
734,1.566754710129172
735,0.0013307782237470662
737,1138.264054396447
739,34.94720968242459
741,0.0
743,0.0
892,17.4072774490187
893,3.476925712344513
894,7.075
895,1.2779359574583192
896,7.075
897,0.9320650230065486
898,17.98287429049398
899,21.473959466666668
900,16.823192391656418
901,21.473959466666668
902,16.813465184069039
903,21.473959466666668
904,16.813465184069039
905,21.473959466666668
906,32.26126574482602
907,3.7516514356639134
908,7.075
909,0.9051808452750052
910,7.075
911,0.0
912,36.51664134052385
913,39.2619662
914,36.51664134052385
915,39.2619662
916,36.51664134052385
917,39.2619662
918,36.51453049687379
919,39.2619662
920,26.82514413023202
921,3.476925712344513
922,18.892676748676377
923,3.476925712344513
924,19.233464038995338
925,37.26049269847354
926,8.642366196128905
927,0.9320650230065486
646,0.26666666666666669
648,0.0
2,1, 1, 1, 0, 1,45.00,60.00,Tuesday
6,7.2
239,1.0127972155271997
312,27.74397494319111
313,29.879359822312006
349,51.32299407307226
350,8.070923287227533
599,0.0
600,0.0
603,373.57863827436565
604,373.57863827435417
645,0.207370890034881
647,0.07193641031885051
649,0.3733333333333333
650,0.41999999999999995
662,109.97937926244018
663,0.0
726,108.5309491165755
727,0.0
730,10.0
731,0.0029269591438408168
734,2.7074347246343746
735,0.0029895784682771305
737,1031.5549728944513
739,134.04223660979424
741,0.0
743,0.0
892,14.809360470539389
893,3.649360822838923
894,7.200000000000003
895,1.737181686510596
896,7.200000000000003
897,1.1357703640928177
898,16.27712598523886
899,21.61681613333333
900,14.088215093170153
901,21.61681613333333
902,14.01519745267142
903,21.61681613333333
904,14.01519745267142
905,21.61681613333333
906,29.645006399944429
907,3.586838235663913
908,7.200000000000003
909,1.2488044232185279
910,7.200000000000003
911,0.7607498008832909
912,34.25820016064659
913,35.19165873333334
914,32.14251977977141
915,35.19165873333334
916,32.14251977977141
917,35.19165873333334
918,32.037329165096497
919,35.19165873333334
920,27.81329113948068
921,3.649360822838923
922,18.377832708307328
923,3.649360822838923
924,18.721191151437535
925,35.536961764353048
926,10.040161275587757
927,1.1357703640928177
646,0.39999999999999999
648,0.2
2,1, 1, 1, 0, 1, 0.00,60.00,Tuesday
133,20363.024630303833
134,16645.18819201424
135,3700.821282231807
136,13936.849545599995
137,10219.334400000002
138,3700.821282231807
139,40709.03410454988
173,5.977128068646538
174,18.458365728405789
175,7.770471410540887
176,0.4980745147712732
177,25.91651131673775
178,0.10187827053716725
179,1.0
180,0.0
181,0.0
182,0.0
183,0.0
184,0.0
185,1.0
186,0.0
187,0.0
188,0.0
189,0.0
190,0.0
191,-19.501925485228726
192,20363.024630303833
193,16645.18819201424
194,3700.821282231807
195,13936.849545599995
196,10219.334400000002
197,3700.821282231807
198,40709.03410454988
199,40236.006829731596
200,36087.93792883516
201,7632.394475856674
202,15546.354479999996
203,11399.520000000002
204,7632.394475856674
205,83956.33923442342
209,12.473446092331625
210,26.911580365541128
211,5.0770016513653879
212,0.28259718222167998
213,34.347150000639917
214,0.10959494016151697
215,1.0
216,0.25
217,0.0
218,0.0
219,0.0
220,0.0
221,1.0
222,0.16192850906555379
223,0.0
224,0.0
225,0.0
226,0.0
227,-19.71740281777832
228,40236.006829731596
229,36087.93792883516
230,7632.394475856674
231,15546.354479999996
232,11399.520000000002
233,7632.394475856674
234,83956.33923442342
315,20.0
316,23.0
352,20.0
353,23.0
387,0.0
388,0.0
422,0.0
423,0.0
525,0.0
526,0.0
527,1.0
528,0.0
529,0.0
530,0.0
531,1.0
532,0.0
533,0.0
534,0.0
535,0.0
536,0.0
537,0.0
538,0.0
539,0.0
540,0.0
314,4.0
351,4.0
386,0.0
421,0.0
517,124693.77333897329
518,3248.0713413071744
519,127941.84468028049
520,0.016666666666666668
521,0.016666666666666668
522,0.08333333333333334
523,0.1
524,0.21666666666666668
541,0.5396845333210834
542,0.4
543,0.9747872866779846
544,0.5177933334247913
545,0.4
546,0.4797225204174529
605,1229.805324160027
606,0.35265780044464825
607,1106.8247917440244
608,4427299.166976098
639,3.3666068118819876
640,1345.990588874121
641,0.3646714702487077
642,1211.3915299867087
643,4845566.119946836
644,3.6188661689972467
766,66.1854235050433
788,10.206073152664715
789,9.991956602747175
790,75.77294342800504
802,9.924657101422538
803,9.925347494444232
2,1, 1, 1, 0, 2, 0.00,15.00,Tuesday
6,7.2
239,1.0170488744808067
312,28.568447974200809
313,28.481496607235344
349,48.11586776545676
350,9.656191565708852
599,0.0
600,0.0
603,1.887183064031068
604,1.8871830640307397
645,0.22084184712938294
647,0.04756846417413139
649,0.323076923076923
650,0.48461538461538458
662,118.43126956909903
663,0.0
726,2.5836856275747008
727,0.0
730,7.546818282623294
731,0.0036104283858997999
734,1.6566520817947735
735,0.002839696167379338
737,3245.0682653970566
739,418.6252414467411
741,0.0
743,0.0
892,14.551850585009053
893,3.0305940769230768
894,7.199999999999999
895,1.6620980409774744
896,7.199999999999999
897,1.2041741687124815
898,15.140753633167617
899,19.569365153846154
900,12.750638768162697
901,19.569365153846154
902,12.66642598038713
903,19.569365153846154
904,12.66642598038713
905,19.569365153846154
906,32.173705510444609
907,5.528358051907189
908,7.199999999999999
909,1.511111364121779
910,7.199999999999999
911,0.2907708843457157
912,36.44301245071605
913,37.44438184615384
914,35.00350611959065
915,37.44438184615384
916,35.00350611959065
917,37.44438184615384
918,35.00302573043295
919,37.44438184615384
920,28.709438981346808
921,3.0305940769230768
922,16.880771748376483
923,3.0305940769230768
924,17.251243751238325
925,37.22072819037218
926,10.14602840661318
927,1.2041741687124815
646,0.3846153846153845
648,0.23076923076923074
2,1, 1, 1, 0, 2,15.00,30.00,Tuesday
6,7.2
239,1.0209766857642875
312,23.60575039852446
313,38.294111789576479
349,51.96901118916122
350,8.353199363438107
599,0.0
600,0.0
603,8.32182900577403
604,8.321829005774271
645,0.13904956946996159
647,0.07103147425630521
649,0.3733333333333333
650,0.41999999999999995
662,11.776423039272319
663,0.0
726,7.997206305257638
727,0.0
730,7.933996339747231
731,0.0021353176105503538
734,4.830579266373196
735,0.0023054410625507487
737,0.0
739,0.0
741,0.0
743,0.0
892,15.704057634537284
893,3.2791599351834366
894,7.200000000000003
895,1.2536898734895906
896,7.200000000000003
897,0.4785797964598455
898,15.208973484556817
899,22.40534306666667
900,13.819617899517468
901,22.40534306666667
902,13.819617899517468
903,22.40534306666667
904,13.819617899517468
905,22.40534306666667
906,28.9963879881502
907,3.4644312666666674
908,7.200000000000003
909,1.4593897194735935
910,7.200000000000003
911,0.33965729508945077
912,32.64675240731512
913,34.46124926666668
914,30.619142884960384
915,34.46124926666668
916,30.619142884960384
917,34.46124926666668
918,30.61660733345978
919,34.46124926666668