Program Version,EnergyPlus, Version 8.8.0-Unknown, YMD=2019.07.16 14:16
1,5,Environment Title[],Latitude[deg],Longitude[deg],Time Zone[],Elevation[m]
2,6,Day of Simulation[],Month[],Day of Month[],DST Indicator[1=yes 0=no],Hour[],StartMinute[],EndMinute[],DayType
3,3,Cumulative Day of Simulation[],Month[],Day of Month[],DST Indicator[1=yes 0=no],DayType  ! When Daily Report Variables Requested
4,2,Cumulative Days of Simulation[],Month[]  ! When Monthly Report Variables Requested
5,1,Cumulative Days of Simulation[] ! When Run Period Report Variables Requested
6,1,Environment,Site Outdoor Air Drybulb Temperature [C] !TimeStep
133,1,WESTDATACENTER_EQUIP,ITE CPU Electric Power [W] !Hourly
134,1,WESTDATACENTER_EQUIP,ITE Fan Electric Power [W] !Hourly
135,1,WESTDATACENTER_EQUIP,ITE UPS Electric Power [W] !Hourly
136,1,WESTDATACENTER_EQUIP,ITE CPU Electric Power at Design Inlet Conditions [W] !Hourly
137,1,WESTDATACENTER_EQUIP,ITE Fan Electric Power at Design Inlet Conditions [W] !Hourly
138,1,WESTDATACENTER_EQUIP,ITE UPS Heat Gain to Zone Rate [W] !Hourly
139,1,WESTDATACENTER_EQUIP,ITE Total Heat Gain to Zone Rate [W] !Hourly
173,1,WESTDATACENTER_EQUIP,ITE Standard Density Air Volume Flow Rate [m3/s] !Hourly
174,1,WESTDATACENTER_EQUIP,ITE Air Inlet Dry-Bulb Temperature [C] !Hourly
175,1,WESTDATACENTER_EQUIP,ITE Air Inlet Dewpoint Temperature [C] !Hourly
176,1,WESTDATACENTER_EQUIP,ITE Air Inlet Relative Humidity [%] !Hourly
177,1,WESTDATACENTER_EQUIP,ITE Air Outlet Dry-Bulb Temperature [C] !Hourly
178,1,WESTDATACENTER_EQUIP,ITE Supply Heat Index [] !Hourly
179,1,WESTDATACENTER_EQUIP,ITE Air Inlet Operating Range Exceeded Time [hr] !Hourly
180,1,WESTDATACENTER_EQUIP,ITE Air Inlet Dry-Bulb Temperature Above Operating Range Time [hr] !Hourly
181,1,WESTDATACENTER_EQUIP,ITE Air Inlet Dry-Bulb Temperature Below Operating Range Time [hr] !Hourly
182,1,WESTDATACENTER_EQUIP,ITE Air Inlet Dewpoint Temperature Above Operating Range Time [hr] !Hourly
183,1,WESTDATACENTER_EQUIP,ITE Air Inlet Dewpoint Temperature Below Operating Range Time [hr] !Hourly
184,1,WESTDATACENTER_EQUIP,ITE Air Inlet Relative Humidity Above Operating Range Time [hr] !Hourly
185,1,WESTDATACENTER_EQUIP,ITE Air Inlet Relative Humidity Below Operating Range Time [hr] !Hourly
186,1,WESTDATACENTER_EQUIP,ITE Air Inlet Dry-Bulb Temperature Difference Above Operating Range [deltaC] !Hourly
187,1,WESTDATACENTER_EQUIP,ITE Air Inlet Dry-Bulb Temperature Difference Below Operating Range [deltaC] !Hourly
188,1,WESTDATACENTER_EQUIP,ITE Air Inlet Dewpoint Temperature Difference Above Operating Range [deltaC] !Hourly
189,1,WESTDATACENTER_EQUIP,ITE Air Inlet Dewpoint Temperature Difference Below Operating Range [deltaC] !Hourly
190,1,WESTDATACENTER_EQUIP,ITE Air Inlet Relative Humidity Difference Above Operating Range [%] !Hourly
191,1,WESTDATACENTER_EQUIP,ITE Air Inlet Relative Humidity Difference Below Operating Range [%] !Hourly
192,1,WEST ZONE,Zone ITE CPU Electric Power [W] !Hourly
193,1,WEST ZONE,Zone ITE Fan Electric Power [W] !Hourly
194,1,WEST ZONE,Zone ITE UPS Electric Power [W] !Hourly
195,1,WEST ZONE,Zone ITE CPU Electric Power at Design Inlet Conditions [W] !Hourly
196,1,WEST ZONE,Zone ITE Fan Electric Power at Design Inlet Conditions [W] !Hourly
197,1,WEST ZONE,Zone ITE UPS Heat Gain to Zone Rate [W] !Hourly
198,1,WEST ZONE,Zone ITE Total Heat Gain to Zone Rate [W] !Hourly
199,1,EASTDATACENTER_EQUIP,ITE CPU Electric Power [W] !Hourly
200,1,EASTDATACENTER_EQUIP,ITE Fan Electric Power [W] !Hourly
201,1,EASTDATACENTER_EQUIP,ITE UPS Electric Power [W] !Hourly
202,1,EASTDATACENTER_EQUIP,ITE CPU Electric Power at Design Inlet Conditions [W] !Hourly
203,1,EASTDATACENTER_EQUIP,ITE Fan Electric Power at Design Inlet Conditions [W] !Hourly
204,1,EASTDATACENTER_EQUIP,ITE UPS Heat Gain to Zone Rate [W] !Hourly
205,1,EASTDATACENTER_EQUIP,ITE Total Heat Gain to Zone Rate [W] !Hourly
209,1,EASTDATACENTER_EQUIP,ITE Standard Density Air Volume Flow Rate [m3/s] !Hourly
210,1,EASTDATACENTER_EQUIP,ITE Air Inlet Dry-Bulb Temperature [C] !Hourly
211,1,EASTDATACENTER_EQUIP,ITE Air Inlet Dewpoint Temperature [C] !Hourly
212,1,EASTDATACENTER_EQUIP,ITE Air Inlet Relative Humidity [%] !Hourly
213,1,EASTDATACENTER_EQUIP,ITE Air Outlet Dry-Bulb Temperature [C] !Hourly
214,1,EASTDATACENTER_EQUIP,ITE Supply Heat Index [] !Hourly
215,1,EASTDATACENTER_EQUIP,ITE Air Inlet Operating Range Exceeded Time [hr] !Hourly
216,1,EASTDATACENTER_EQUIP,ITE Air Inlet Dry-Bulb Temperature Above Operating Range Time [hr] !Hourly
217,1,EASTDATACENTER_EQUIP,ITE Air Inlet Dry-Bulb Temperature Below Operating Range Time [hr] !Hourly
218,1,EASTDATACENTER_EQUIP,ITE Air Inlet Dewpoint Temperature Above Operating Range Time [hr] !Hourly
219,1,EASTDATACENTER_EQUIP,ITE Air Inlet Dewpoint Temperature Below Operating Range Time [hr] !Hourly
220,1,EASTDATACENTER_EQUIP,ITE Air Inlet Relative Humidity Above Operating Range Time [hr] !Hourly
221,1,EASTDATACENTER_EQUIP,ITE Air Inlet Relative Humidity Below Operating Range Time [hr] !Hourly
222,1,EASTDATACENTER_EQUIP,ITE Air Inlet Dry-Bulb Temperature Difference Above Operating Range [deltaC] !Hourly
223,1,EASTDATACENTER_EQUIP,ITE Air Inlet Dry-Bulb Temperature Difference Below Operating Range [deltaC] !Hourly
224,1,EASTDATACENTER_EQUIP,ITE Air Inlet Dewpoint Temperature Difference Above Operating Range [deltaC] !Hourly
225,1,EASTDATACENTER_EQUIP,ITE Air Inlet Dewpoint Temperature Difference Below Operating Range [deltaC] !Hourly
226,1,EASTDATACENTER_EQUIP,ITE Air Inlet Relative Humidity Difference Above Operating Range [%] !Hourly
227,1,EASTDATACENTER_EQUIP,ITE Air Inlet Relative Humidity Difference Below Operating Range [%] !Hourly
228,1,EAST ZONE,Zone ITE CPU Electric Power [W] !Hourly
229,1,EAST ZONE,Zone ITE Fan Electric Power [W] !Hourly
230,1,EAST ZONE,Zone ITE UPS Electric Power [W] !Hourly
231,1,EAST ZONE,Zone ITE CPU Electric Power at Design Inlet Conditions [W] !Hourly
232,1,EAST ZONE,Zone ITE Fan Electric Power at Design Inlet Conditions [W] !Hourly
233,1,EAST ZONE,Zone ITE UPS Heat Gain to Zone Rate [W] !Hourly
234,1,EAST ZONE,Zone ITE Total Heat Gain to Zone Rate [W] !Hourly
239,1,EMS,Power Utilization Effectiveness [] !TimeStep
312,1,WEST ZONE,Zone Air Temperature [C] !TimeStep
313,1,WEST ZONE,Zone Air Relative Humidity [%] !TimeStep
314,1,WEST ZONE,Zone Thermostat Control Type [] !Hourly
315,1,WEST ZONE,Zone Thermostat Heating Setpoint Temperature [C] !Hourly
316,1,WEST ZONE,Zone Thermostat Cooling Setpoint Temperature [C] !Hourly
349,1,EAST ZONE,Zone Air Temperature [C] !TimeStep
350,1,EAST ZONE,Zone Air Relative Humidity [%] !TimeStep
351,1,EAST ZONE,Zone Thermostat Control Type [] !Hourly
352,1,EAST ZONE,Zone Thermostat Heating Setpoint Temperature [C] !Hourly
353,1,EAST ZONE,Zone Thermostat Cooling Setpoint Temperature [C] !Hourly
386,1,WEST PLENUM,Zone Thermostat Control Type [] !Hourly
387,1,WEST PLENUM,Zone Thermostat Heating Setpoint Temperature [C] !Hourly
388,1,WEST PLENUM,Zone Thermostat Cooling Setpoint Temperature [C] !Hourly
421,1,EAST PLENUM,Zone Thermostat Control Type [] !Hourly
422,1,EAST PLENUM,Zone Thermostat Heating Setpoint Temperature [C] !Hourly
423,1,EAST PLENUM,Zone Thermostat Cooling Setpoint Temperature [C] !Hourly
517,1,Whole Building,Facility Total Building Electric Demand Power [W] !Hourly
518,1,Whole Building,Facility Total HVAC Electric Demand Power [W] !Hourly
519,1,Whole Building,Facility Total Electric Demand Power [W] !Hourly
520,1,WEST ZONE,Zone Oscillating Temperatures Time [hr] !Hourly
521,1,EAST ZONE,Zone Oscillating Temperatures Time [hr] !Hourly
522,1,WEST PLENUM,Zone Oscillating Temperatures Time [hr] !Hourly
523,1,EAST PLENUM,Zone Oscillating Temperatures Time [hr] !Hourly
524,1,Facility,Facility Any Zone Oscillating Temperatures Time [hr] !Hourly
525,1,WEST ZONE,Zone Heating Setpoint Not Met Time [hr] !Hourly
526,1,WEST ZONE,Zone Heating Setpoint Not Met While Occupied Time [hr] !Hourly
527,1,WEST ZONE,Zone Cooling Setpoint Not Met Time [hr] !Hourly
528,1,WEST ZONE,Zone Cooling Setpoint Not Met While Occupied Time [hr] !Hourly
529,1,EAST ZONE,Zone Heating Setpoint Not Met Time [hr] !Hourly
530,1,EAST ZONE,Zone Heating Setpoint Not Met While Occupied Time [hr] !Hourly
531,1,EAST ZONE,Zone Cooling Setpoint Not Met Time [hr] !Hourly
532,1,EAST ZONE,Zone Cooling Setpoint Not Met While Occupied Time [hr] !Hourly
533,1,WEST PLENUM,Zone Heating Setpoint Not Met Time [hr] !Hourly
534,1,WEST PLENUM,Zone Heating Setpoint Not Met While Occupied Time [hr] !Hourly
535,1,WEST PLENUM,Zone Cooling Setpoint Not Met Time [hr] !Hourly
536,1,WEST PLENUM,Zone Cooling Setpoint Not Met While Occupied Time [hr] !Hourly
537,1,EAST PLENUM,Zone Heating Setpoint Not Met Time [hr] !Hourly
538,1,EAST PLENUM,Zone Heating Setpoint Not Met While Occupied Time [hr] !Hourly
539,1,EAST PLENUM,Zone Cooling Setpoint Not Met Time [hr] !Hourly
540,1,EAST PLENUM,Zone Cooling Setpoint Not Met While Occupied Time [hr] !Hourly
541,1,WEST ZONE VAV SYSTEM,Zone Air Terminal VAV Damper Position [] !Hourly
542,1,WEST ZONE VAV SYSTEM,Zone Air Terminal Minimum Air Flow Fraction [] !Hourly
543,1,WEST ZONE VAV SYSTEM,Zone Air Terminal Outdoor Air Volume Flow Rate [m3/s] !Hourly
544,1,EAST ZONE VAV SYSTEM,Zone Air Terminal VAV Damper Position [] !Hourly
545,1,EAST ZONE VAV SYSTEM,Zone Air Terminal Minimum Air Flow Fraction [] !Hourly
546,1,EAST ZONE VAV SYSTEM,Zone Air Terminal Outdoor Air Volume Flow Rate [m3/s] !Hourly
599,1,WEST ZONE CW COOLING COIL,Cooling Coil Total Cooling Rate [W] !TimeStep
600,1,WEST ZONE CW COOLING COIL,Cooling Coil Sensible Cooling Rate [W] !TimeStep
603,1,EAST ZONE CW COOLING COIL,Cooling Coil Total Cooling Rate [W] !TimeStep
604,1,EAST ZONE CW COOLING COIL,Cooling Coil Sensible Cooling Rate [W] !TimeStep
605,1,WEST ZONE SUPPLY FAN,Fan Electric Power [W] !Hourly
606,1,WEST ZONE SUPPLY FAN,Fan Rise in Air Temperature [deltaC] !Hourly
607,1,WEST ZONE SUPPLY FAN,Fan Heat Gain to Air [W] !Hourly
608,1,WEST ZONE SUPPLY FAN,Fan Electric Energy [J] !Hourly
639,1,WEST ZONE SUPPLY FAN,Fan Air Mass Flow Rate [kg/s] !Hourly
640,1,EAST ZONE SUPPLY FAN,Fan Electric Power [W] !Hourly
641,1,EAST ZONE SUPPLY FAN,Fan Rise in Air Temperature [deltaC] !Hourly
642,1,EAST ZONE SUPPLY FAN,Fan Heat Gain to Air [W] !Hourly
643,1,EAST ZONE SUPPLY FAN,Fan Electric Energy [J] !Hourly
644,1,EAST ZONE SUPPLY FAN,Fan Air Mass Flow Rate [kg/s] !Hourly
645,1,WEST DATA CENTER IEC,Evaporative Cooler Total Stage Effectiveness [] !TimeStep
646,1,WEST DATA CENTER IEC,Evaporative Cooler Operating Mode Status [] !TimeStep
647,1,EAST DATA CENTER IEC,Evaporative Cooler Total Stage Effectiveness [] !TimeStep
648,1,EAST DATA CENTER IEC,Evaporative Cooler Operating Mode Status [] !TimeStep
649,1,WEST DATA CENTER DEC,Evaporative Cooler Stage Effectiveness [] !TimeStep
650,1,EAST DATA CENTER DEC,Evaporative Cooler Stage Effectiveness [] !TimeStep
662,1,WEST DATA CENTER IEC,Evaporative Cooler Electric Power [W] !TimeStep
663,1,WEST DATA CENTER IEC,Evaporative Cooler Water Volume [m3] !TimeStep
726,1,EAST DATA CENTER IEC,Evaporative Cooler Electric Power [W] !TimeStep
727,1,EAST DATA CENTER IEC,Evaporative Cooler Water Volume [m3] !TimeStep
730,1,WEST DATA CENTER DEC,Evaporative Cooler Electric Power [W] !TimeStep
731,1,WEST DATA CENTER DEC,Evaporative Cooler Water Volume [m3] !TimeStep
734,1,EAST DATA CENTER DEC,Evaporative Cooler Electric Power [W] !TimeStep
735,1,EAST DATA CENTER DEC,Evaporative Cooler Water Volume [m3] !TimeStep
737,1,WEST DX COOLING COIL,Cooling Coil Total Cooling Rate [W] !TimeStep
739,1,WEST DX COOLING COIL,Cooling Coil Sensible Cooling Rate [W] !TimeStep
741,1,EAST DX COOLING COIL,Cooling Coil Total Cooling Rate [W] !TimeStep
743,1,EAST DX COOLING COIL,Cooling Coil Sensible Cooling Rate [W] !TimeStep
766,1,CHILLER,Chiller Evaporator Cooling Rate [W] !Hourly
788,1,CHILLER,Chiller Evaporator Inlet Temperature [C] !Hourly
789,1,CHILLER,Chiller Evaporator Outlet Temperature [C] !Hourly
790,1,CHILLER,Chiller Condenser Heat Transfer Rate [W] !Hourly
802,1,CHILLER,Chiller Condenser Inlet Temperature [C] !Hourly
803,1,CHILLER,Chiller Condenser Outlet Temperature [C] !Hourly
892,1,WEST ZONE INLET NODE,System Node Temperature [C] !TimeStep
893,1,WEST ZONE INLET NODE,System Node Mass Flow Rate [kg/s] !TimeStep
894,1,WEST OUTSIDE AIR INLET NODE,System Node Temperature [C] !TimeStep
895,1,WEST OUTSIDE AIR INLET NODE,System Node Mass Flow Rate [kg/s] !TimeStep
896,1,WEST IEC SECONDARY AIR INLET NODE,System Node Temperature [C] !TimeStep
897,1,WEST IEC SECONDARY AIR INLET NODE,System Node Mass Flow Rate [kg/s] !TimeStep
898,1,WEST ZONE DEC OUTLET NODE,System Node Temperature [C] !TimeStep
899,1,WEST ZONE DEC OUTLET NODE,System Node Setpoint Temperature [C] !TimeStep
900,1,WEST ZONE IEC OUTLET NODE,System Node Temperature [C] !TimeStep
901,1,WEST ZONE IEC OUTLET NODE,System Node Setpoint Temperature [C] !TimeStep
902,1,WEST ZONE CCOIL AIR OUTLET NODE,System Node Temperature [C] !TimeStep
903,1,WEST ZONE CCOIL AIR OUTLET NODE,System Node Setpoint Temperature [C] !TimeStep
904,1,WEST AIR LOOP OUTLET NODE,System Node Temperature [C] !TimeStep
905,1,WEST AIR LOOP OUTLET NODE,System Node Setpoint Temperature [C] !TimeStep
906,1,EAST ZONE INLET NODE,System Node Temperature [C] !TimeStep
907,1,EAST ZONE INLET NODE,System Node Mass Flow Rate [kg/s] !TimeStep
908,1,EAST OUTSIDE AIR INLET NODE,System Node Temperature [C] !TimeStep
909,1,EAST OUTSIDE AIR INLET NODE,System Node Mass Flow Rate [kg/s] !TimeStep
910,1,EAST IEC SECONDARY AIR INLET NODE,System Node Temperature [C] !TimeStep
911,1,EAST IEC SECONDARY AIR INLET NODE,System Node Mass Flow Rate [kg/s] !TimeStep
912,1,EAST ZONE DEC OUTLET NODE,System Node Temperature [C] !TimeStep
913,1,EAST ZONE DEC OUTLET NODE,System Node Setpoint Temperature [C] !TimeStep
914,1,EAST ZONE IEC OUTLET NODE,System Node Temperature [C] !TimeStep
915,1,EAST ZONE IEC OUTLET NODE,System Node Setpoint Temperature [C] !TimeStep
916,1,EAST ZONE CCOIL AIR OUTLET NODE,System Node Temperature [C] !TimeStep
917,1,EAST ZONE CCOIL AIR OUTLET NODE,System Node Setpoint Temperature [C] !TimeStep
918,1,EAST AIR LOOP OUTLET NODE,System Node Temperature [C] !TimeStep
919,1,EAST AIR LOOP OUTLET NODE,System Node Setpoint Temperature [C] !TimeStep
920,1,WEST ZONE RETURN AIR NODE,System Node Temperature [C] !TimeStep
921,1,WEST ZONE RETURN AIR NODE,System Node Mass Flow Rate [kg/s] !TimeStep
922,1,WEST ZONE MIXED AIR NODE,System Node Temperature [C] !TimeStep
923,1,WEST ZONE MIXED AIR NODE,System Node Mass Flow Rate [kg/s] !TimeStep
924,1,WEST ZONE SUPPLY FAN OUTLET NODE,System Node Temperature [C] !TimeStep
925,1,EAST ZONE SUPPLY FAN OUTLET NODE,System Node Temperature [C] !TimeStep
926,1,WEST IEC SECONDARY AIR OUTLET NODE,System Node Temperature [C] !TimeStep
927,1,WEST IEC SECONDARY AIR OUTLET NODE,System Node Mass Flow Rate [kg/s] !TimeStep
End of Data Dictionary
1,WHOLEYEARDAY,  37.62,-122.40,  -8.00,   2.00
2,1, 1, 1, 0, 1, 0.00,15.00,Tuesday
6,6.825
239,1.0300298866314462
312,20.564974285695685
313,37.013844215749958
349,22.19572713143518
350,31.388549275882935
599,0.0
600,0.0
603,0.0
604,0.0
645,0.13792299327130776
647,0.045199241320633468
649,0.46666666666666659
650,0.6533333333333331
662,14.662058415717557
663,0.0
726,34.876416599981038
727,0.0
730,8.0
731,0.003760178942348838
734,2.0
735,0.0019818240785622685
737,0.0
739,0.0
741,0.0
743,0.0
892,15.126446713968637
893,3.838040979011179
894,6.825
895,1.0865446962723189
896,6.825
897,0.6148401689908377
898,15.698059875409541
899,21.699841533333335
900,14.539282543415782
901,21.699841533333335
902,14.539282543415782
903,21.699841533333335
904,14.539282543415782
905,21.699841533333335
906,19.051044543491864
907,5.647102711652898
908,6.825
909,0.5725282438206086
910,6.825
911,0.4419410160442265
912,20.626694718748234
913,37.261506866666667
914,20.184851036372213
915,37.261506866666667
916,20.184851036372213
917,37.261506866666667
918,20.184851036372213
919,37.261506866666667
920,20.647804471068196
921,3.838040979011179
922,17.074904141655055
923,3.838040979011179
924,17.387908673649858
925,21.141405146825649
926,8.677625461220368
927,0.6148401689908377
646,0.26666666666666669
648,0.06666666666666667
2,1, 1, 1, 0, 1,15.00,30.00,Tuesday
6,6.95
239,1.0597316645576188
312,22.942721539924287
313,36.74341868699472
349,32.54574920839805
350,19.046817674821225
599,0.0
600,0.0
603,0.0
604,0.0
645,0.18324673555043459
647,0.0
649,0.32666666666666668
650,0.6999999999999997
662,15.087745657380094
663,0.0
726,0.0
727,0.0
730,9.447363783704077
731,0.003028768497241095
734,0.4831771485727538
735,0.0007433895246400688
737,0.0
739,0.0
741,0.0
743,0.0
892,14.425828437366006
893,2.9836599561722569
894,6.9499999999999979
895,1.3297717802103129
896,6.9499999999999979
897,0.6490750433068415
898,14.0564138432373
899,17.7723572
900,12.493434626923115
901,17.7723572
902,12.493434626923115
903,17.7723572
904,12.493434626923115
905,17.7723572
906,28.1708592698737
907,5.559673573658405
908,6.9499999999999979
909,0.04411839544054887
910,6.9499999999999979
911,0.0
912,31.33137204362292
913,39.399611199999998
914,31.33137204362292
915,39.399611199999998
916,31.33137204362292
917,39.399611199999998
918,31.33137204362292
919,39.399611199999998
920,22.827191660921704
921,2.9836599561722569
922,15.546611234686213
923,2.9836599561722569
924,15.916722436387819
925,31.52433496603441
926,8.855018062059159
927,0.6490750433068415
646,0.3333333333333333
648,0.0
2,1, 1, 1, 0, 1,30.00,45.00,Tuesday
6,7.075
239,1.0405263214590473
312,25.798241294880535
313,34.613696441933857
349,44.9623443596057
350,10.545854366439692
599,0.0
600,0.0
603,43.416049349317649
604,43.416049349317059
645,0.1380998686059808
647,0.0
649,0.5133333333333332
650,0.6999999999999997
662,7.1203457914554779
663,0.0
726,0.0
727,0.0
730,13.833459491544712
731,0.00448223700278807
734,1.5348345312145547
735,0.0028312961726022708
737,0.0
739,0.0
741,0.0
743,0.0
892,15.83516399225995
893,2.91948988950559
894,7.075
895,1.0370608945536988
896,7.075
897,0.5004409285056499
898,16.59967037018759
899,22.643154799999999
900,15.05698245383403
901,22.643154799999999
902,15.05698245383403
903,22.643154799999999
904,15.05698245383403
905,22.643154799999999
906,34.19569803268156
907,6.0398892806501449
908,7.075
909,0.845523388016886
910,7.075
911,0.0
912,37.88196275834154
913,39.089465733333337
914,37.88196275834154
915,39.089465733333337
916,37.88196275834154
917,39.089465733333337
918,37.87390734040413
919,39.089465733333337
920,25.64157003788944
921,2.91948988950559
922,19.21342504058642
923,2.91948988950559
924,19.5829439929473
925,38.614362252721239
926,9.95120014395091
927,0.5004409285056499
646,0.3333333333333333
648,0.0
2,1, 1, 1, 0, 1,45.00,60.00,Tuesday
6,7.2
239,1.04772430038876
312,24.589695655855125
313,37.09406023036492
349,48.62499640539085
350,9.112774633112398
599,0.0
600,0.0
603,22.337111138659546
604,22.337111138664917
645,0.18168059509813917
647,0.032257339902397198
649,0.4999999999999991
650,0.4499999999999992
662,209.30804010251195
663,0.0
726,0.03891849771615154
727,0.0
730,10.303584072524883
731,0.0035672323363153985
734,2.570928592763519
735,0.001992853742741498
737,2209.895564140698
739,157.62192993844844
741,0.0
743,0.0
892,16.24428717507181
893,3.2708702142857088
894,7.199999999999987
895,1.1354568252391176
896,7.199999999999987
897,1.5566207577239187
898,17.214283575345058
899,20.953264428571396
900,15.351588803561592
901,20.953264428571396
902,15.290037115104957
903,20.953264428571396
904,15.290037115104957
905,20.953264428571396
906,33.66929958127982
907,5.628189767479337
908,7.199999999999987
909,1.4364940686869697
910,7.199999999999987
911,0.0682740477861178
912,36.989000864691167
913,38.205968857142789
914,36.4422092364338
915,38.205968857142789
916,36.4422092364338
917,38.205968857142789
918,36.438959387635197
919,38.205968857142789
920,24.69095021004802
921,3.2708702142857088
922,18.970993925041058
923,3.2708702142857088
924,19.32812052274065
925,38.2063571545183
926,9.102011979099896
927,1.5566207577239187
646,0.3571428571428565
648,0.2142857142857139
2,1, 1, 1, 0, 1, 0.00,60.00,Tuesday
133,15361.55543711119
134,11643.96905977821
135,2700.5524496889393
136,13936.849545599995
137,10219.334400000002
138,2700.5524496889393
139,29706.076946578345
173,4.227135727169562
174,15.766731992719617
175,8.179308847561043
176,0.6106281335938315
177,23.400730373114784
178,0.09502418762506154
179,1.0
180,0.0
181,0.0
182,0.0
183,0.0
184,0.0
185,1.0
186,0.0
187,0.0
188,0.0
189,0.0
190,0.0
191,-19.38937186640617
192,15361.55543711119
193,11643.96905977821
194,2700.5524496889393
195,13936.849545599995
196,10219.334400000002
197,2700.5524496889393
198,29706.076946578345
199,40203.10441367715
200,36055.03715781928
201,7625.814157149642
202,15546.354479999996
203,11399.520000000002
204,7625.814157149642
205,83883.95572864608
209,12.424347544359933
210,26.89570651816971
211,5.356797901575435
212,0.29460100368903788
213,34.34764454805856
214,0.08018351407833563
215,1.0
216,0.5
217,0.0
218,0.0
219,0.0
220,0.0
221,1.0
222,0.6521787419043132
223,0.0
224,0.0
225,0.0
226,0.0
227,-19.70539899631096
228,40203.10441367715
229,36055.03715781928
230,7625.814157149642
231,15546.354479999996
232,11399.520000000002
233,7625.814157149642
234,83883.95572864608
315,20.0
316,23.0
352,20.0
353,23.0
387,0.0
388,0.0
422,0.0
423,0.0
525,0.0
526,0.0
527,0.5
528,0.0
529,0.0
530,0.0
531,0.75
532,0.0
533,0.0
534,0.0
535,0.0
536,0.0
537,0.0
538,0.0
539,0.0
540,0.0
314,4.0
351,4.0
386,0.0
421,0.0
517,113618.43267522435
518,3948.660962170962
519,117567.09363739529
520,0.0
521,0.017857142857142857
522,0.0869047619047619
523,0.05
524,0.1369047619047619
541,0.5214752183548642
542,0.39999999999999988
543,0.9528126689939493
544,0.8182429966727778
545,0.39999999999999988
546,0.6018704872873935
605,1196.9141013881808
606,0.35244032093922225
607,1077.2226912493627
608,4308890.7649974529
639,3.2530152597436836
640,1960.136242566201
641,0.3084461310527589
642,1764.122618309581
643,7056490.473238327
644,5.718713833360196
766,2.1851612851951565
788,10.206236106770565
789,9.877790157842654
790,2.501609916649768
802,9.92873219179821
803,9.92875498485008
2,1, 1, 1, 0, 2, 0.00,15.00,Tuesday
6,7.2
239,1.051975247775819
312,28.33231962283762
313,32.73443471545307
349,51.294479863154069
350,7.948828698205947
599,0.0
600,0.0
603,42.58929919713394
604,42.58929919713307
645,0.1421038401087829
647,0.0
649,0.5133333333333332
650,0.6533333333333331
662,98.2960418980457
663,0.0
726,0.0
727,0.0
730,10.568447412908096
731,0.004590053114329624
734,1.1514778525634493
735,0.0017831627586663195
737,1219.3990310217052
739,141.32188610054838
741,0.0
743,0.0
892,17.854762217066605
893,3.092504266666667
894,7.200000000000003
895,1.0947515110525819
896,7.200000000000003
897,0.8525928845581772
898,18.841536032183787
899,23.18457146666667
900,16.98730932170616
901,23.18457146666667
902,16.908060698544163
903,23.18457146666667
904,16.908060698544163
905,23.18457146666667
906,35.2919213419315
907,5.45901964964739
908,7.200000000000003
909,1.5177950120748296
910,7.200000000000003
911,0.0
912,38.91378445372951
913,39.4683004
914,38.91378445372951
915,39.4683004
916,38.91378445372951
917,39.4683004
918,38.90337476535571
919,39.4683004
920,28.131312182510024
921,3.092504266666667
922,20.918990352463337
923,3.092504266666667
924,21.291940772512388
925,39.45490091198092
926,10.621489057584237
927,0.8525928845581772
646,0.3333333333333333
648,0.0
2,1, 1, 1, 0, 2,15.00,30.00,Tuesday
6,7.2
239,1.0227151679476634
312,22.730936876359715
313,46.083708408697187
349,50.37766739015697
350,9.198189595547082
599,0.0
600,0.0
603,45.5685243135553
604,45.56852431355651
645,0.18020811242978727
647,0.029834349832684564
649,0.3733333333333333
650,0.18666666666666666
662,35.57448287108096
663,0.0
726,0.09806756882894929
727,0.0
730,10.272954613803595
731,0.004653818456461889
734,2.0
735,0.003002254467259624
737,0.0
739,0.0
741,0.0
743,0.0
892,15.098326527775777
893,3.435495466666666
894,7.200000000000003
895,1.164422430088204
896,7.200000000000003
897,0.8528122910099287
898,15.47169468186041
899,18.5093
900,14.019098119900548
901,18.5093
902,14.019098119900548
903,18.5093
904,14.019098119900548
905,18.5093
906,34.92154295087296
907,5.8991581783195639
908,7.200000000000003
909,1.6585017226829296
910,7.200000000000003
911,0.08538230145923559
912,37.721881521168587
913,38.66135493333333
914,37.31922205462258
915,38.66135493333333
916,37.31922205462258
917,38.66135493333333
918,37.31269417406013
919,38.66135493333333
920,23.162855180473785
921,3.435495466666666
922,16.93435398143083
923,3.435495466666666
924,17.306993366960506