Program Version,EnergyPlus, Version 8.8.0-Unknown, YMD=2019.07.16 14:14
1,5,Environment Title[],Latitude[deg],Longitude[deg],Time Zone[],Elevation[m]
2,6,Day of Simulation[],Month[],Day of Month[],DST Indicator[1=yes 0=no],Hour[],StartMinute[],EndMinute[],DayType
3,3,Cumulative Day of Simulation[],Month[],Day of Month[],DST Indicator[1=yes 0=no],DayType  ! When Daily Report Variables Requested
4,2,Cumulative Days of Simulation[],Month[]  ! When Monthly Report Variables Requested
5,1,Cumulative Days of Simulation[] ! When Run Period Report Variables Requested
6,1,Environment,Site Outdoor Air Drybulb Temperature [C] !TimeStep
133,1,WESTDATACENTER_EQUIP,ITE CPU Electric Power [W] !Hourly
134,1,WESTDATACENTER_EQUIP,ITE Fan Electric Power [W] !Hourly
135,1,WESTDATACENTER_EQUIP,ITE UPS Electric Power [W] !Hourly
136,1,WESTDATACENTER_EQUIP,ITE CPU Electric Power at Design Inlet Conditions [W] !Hourly
137,1,WESTDATACENTER_EQUIP,ITE Fan Electric Power at Design Inlet Conditions [W] !Hourly
138,1,WESTDATACENTER_EQUIP,ITE UPS Heat Gain to Zone Rate [W] !Hourly
139,1,WESTDATACENTER_EQUIP,ITE Total Heat Gain to Zone Rate [W] !Hourly
173,1,WESTDATACENTER_EQUIP,ITE Standard Density Air Volume Flow Rate [m3/s] !Hourly
174,1,WESTDATACENTER_EQUIP,ITE Air Inlet Dry-Bulb Temperature [C] !Hourly
175,1,WESTDATACENTER_EQUIP,ITE Air Inlet Dewpoint Temperature [C] !Hourly
176,1,WESTDATACENTER_EQUIP,ITE Air Inlet Relative Humidity [%] !Hourly
177,1,WESTDATACENTER_EQUIP,ITE Air Outlet Dry-Bulb Temperature [C] !Hourly
178,1,WESTDATACENTER_EQUIP,ITE Supply Heat Index [] !Hourly
179,1,WESTDATACENTER_EQUIP,ITE Air Inlet Operating Range Exceeded Time [hr] !Hourly
180,1,WESTDATACENTER_EQUIP,ITE Air Inlet Dry-Bulb Temperature Above Operating Range Time [hr] !Hourly
181,1,WESTDATACENTER_EQUIP,ITE Air Inlet Dry-Bulb Temperature Below Operating Range Time [hr] !Hourly
182,1,WESTDATACENTER_EQUIP,ITE Air Inlet Dewpoint Temperature Above Operating Range Time [hr] !Hourly
183,1,WESTDATACENTER_EQUIP,ITE Air Inlet Dewpoint Temperature Below Operating Range Time [hr] !Hourly
184,1,WESTDATACENTER_EQUIP,ITE Air Inlet Relative Humidity Above Operating Range Time [hr] !Hourly
185,1,WESTDATACENTER_EQUIP,ITE Air Inlet Relative Humidity Below Operating Range Time [hr] !Hourly
186,1,WESTDATACENTER_EQUIP,ITE Air Inlet Dry-Bulb Temperature Difference Above Operating Range [deltaC] !Hourly
187,1,WESTDATACENTER_EQUIP,ITE Air Inlet Dry-Bulb Temperature Difference Below Operating Range [deltaC] !Hourly
188,1,WESTDATACENTER_EQUIP,ITE Air Inlet Dewpoint Temperature Difference Above Operating Range [deltaC] !Hourly
189,1,WESTDATACENTER_EQUIP,ITE Air Inlet Dewpoint Temperature Difference Below Operating Range [deltaC] !Hourly
190,1,WESTDATACENTER_EQUIP,ITE Air Inlet Relative Humidity Difference Above Operating Range [%] !Hourly
191,1,WESTDATACENTER_EQUIP,ITE Air Inlet Relative Humidity Difference Below Operating Range [%] !Hourly
192,1,WEST ZONE,Zone ITE CPU Electric Power [W] !Hourly
193,1,WEST ZONE,Zone ITE Fan Electric Power [W] !Hourly
194,1,WEST ZONE,Zone ITE UPS Electric Power [W] !Hourly
195,1,WEST ZONE,Zone ITE CPU Electric Power at Design Inlet Conditions [W] !Hourly
196,1,WEST ZONE,Zone ITE Fan Electric Power at Design Inlet Conditions [W] !Hourly
197,1,WEST ZONE,Zone ITE UPS Heat Gain to Zone Rate [W] !Hourly
198,1,WEST ZONE,Zone ITE Total Heat Gain to Zone Rate [W] !Hourly
199,1,EASTDATACENTER_EQUIP,ITE CPU Electric Power [W] !Hourly
200,1,EASTDATACENTER_EQUIP,ITE Fan Electric Power [W] !Hourly
201,1,EASTDATACENTER_EQUIP,ITE UPS Electric Power [W] !Hourly
202,1,EASTDATACENTER_EQUIP,ITE CPU Electric Power at Design Inlet Conditions [W] !Hourly
203,1,EASTDATACENTER_EQUIP,ITE Fan Electric Power at Design Inlet Conditions [W] !Hourly
204,1,EASTDATACENTER_EQUIP,ITE UPS Heat Gain to Zone Rate [W] !Hourly
205,1,EASTDATACENTER_EQUIP,ITE Total Heat Gain to Zone Rate [W] !Hourly
209,1,EASTDATACENTER_EQUIP,ITE Standard Density Air Volume Flow Rate [m3/s] !Hourly
210,1,EASTDATACENTER_EQUIP,ITE Air Inlet Dry-Bulb Temperature [C] !Hourly
211,1,EASTDATACENTER_EQUIP,ITE Air Inlet Dewpoint Temperature [C] !Hourly
212,1,EASTDATACENTER_EQUIP,ITE Air Inlet Relative Humidity [%] !Hourly
213,1,EASTDATACENTER_EQUIP,ITE Air Outlet Dry-Bulb Temperature [C] !Hourly
214,1,EASTDATACENTER_EQUIP,ITE Supply Heat Index [] !Hourly
215,1,EASTDATACENTER_EQUIP,ITE Air Inlet Operating Range Exceeded Time [hr] !Hourly
216,1,EASTDATACENTER_EQUIP,ITE Air Inlet Dry-Bulb Temperature Above Operating Range Time [hr] !Hourly
217,1,EASTDATACENTER_EQUIP,ITE Air Inlet Dry-Bulb Temperature Below Operating Range Time [hr] !Hourly
218,1,EASTDATACENTER_EQUIP,ITE Air Inlet Dewpoint Temperature Above Operating Range Time [hr] !Hourly
219,1,EASTDATACENTER_EQUIP,ITE Air Inlet Dewpoint Temperature Below Operating Range Time [hr] !Hourly
220,1,EASTDATACENTER_EQUIP,ITE Air Inlet Relative Humidity Above Operating Range Time [hr] !Hourly
221,1,EASTDATACENTER_EQUIP,ITE Air Inlet Relative Humidity Below Operating Range Time [hr] !Hourly
222,1,EASTDATACENTER_EQUIP,ITE Air Inlet Dry-Bulb Temperature Difference Above Operating Range [deltaC] !Hourly
223,1,EASTDATACENTER_EQUIP,ITE Air Inlet Dry-Bulb Temperature Difference Below Operating Range [deltaC] !Hourly
224,1,EASTDATACENTER_EQUIP,ITE Air Inlet Dewpoint Temperature Difference Above Operating Range [deltaC] !Hourly
225,1,EASTDATACENTER_EQUIP,ITE Air Inlet Dewpoint Temperature Difference Below Operating Range [deltaC] !Hourly
226,1,EASTDATACENTER_EQUIP,ITE Air Inlet Relative Humidity Difference Above Operating Range [%] !Hourly
227,1,EASTDATACENTER_EQUIP,ITE Air Inlet Relative Humidity Difference Below Operating Range [%] !Hourly
228,1,EAST ZONE,Zone ITE CPU Electric Power [W] !Hourly
229,1,EAST ZONE,Zone ITE Fan Electric Power [W] !Hourly
230,1,EAST ZONE,Zone ITE UPS Electric Power [W] !Hourly
231,1,EAST ZONE,Zone ITE CPU Electric Power at Design Inlet Conditions [W] !Hourly
232,1,EAST ZONE,Zone ITE Fan Electric Power at Design Inlet Conditions [W] !Hourly
233,1,EAST ZONE,Zone ITE UPS Heat Gain to Zone Rate [W] !Hourly
234,1,EAST ZONE,Zone ITE Total Heat Gain to Zone Rate [W] !Hourly
239,1,EMS,Power Utilization Effectiveness [] !TimeStep
312,1,WEST ZONE,Zone Air Temperature [C] !TimeStep
313,1,WEST ZONE,Zone Air Relative Humidity [%] !TimeStep
314,1,WEST ZONE,Zone Thermostat Control Type [] !Hourly
315,1,WEST ZONE,Zone Thermostat Heating Setpoint Temperature [C] !Hourly
316,1,WEST ZONE,Zone Thermostat Cooling Setpoint Temperature [C] !Hourly
349,1,EAST ZONE,Zone Air Temperature [C] !TimeStep
350,1,EAST ZONE,Zone Air Relative Humidity [%] !TimeStep
351,1,EAST ZONE,Zone Thermostat Control Type [] !Hourly
352,1,EAST ZONE,Zone Thermostat Heating Setpoint Temperature [C] !Hourly
353,1,EAST ZONE,Zone Thermostat Cooling Setpoint Temperature [C] !Hourly
386,1,WEST PLENUM,Zone Thermostat Control Type [] !Hourly
387,1,WEST PLENUM,Zone Thermostat Heating Setpoint Temperature [C] !Hourly
388,1,WEST PLENUM,Zone Thermostat Cooling Setpoint Temperature [C] !Hourly
421,1,EAST PLENUM,Zone Thermostat Control Type [] !Hourly
422,1,EAST PLENUM,Zone Thermostat Heating Setpoint Temperature [C] !Hourly
423,1,EAST PLENUM,Zone Thermostat Cooling Setpoint Temperature [C] !Hourly
517,1,Whole Building,Facility Total Building Electric Demand Power [W] !Hourly
518,1,Whole Building,Facility Total HVAC Electric Demand Power [W] !Hourly
519,1,Whole Building,Facility Total Electric Demand Power [W] !Hourly
520,1,WEST ZONE,Zone Oscillating Temperatures Time [hr] !Hourly
521,1,EAST ZONE,Zone Oscillating Temperatures Time [hr] !Hourly
522,1,WEST PLENUM,Zone Oscillating Temperatures Time [hr] !Hourly
523,1,EAST PLENUM,Zone Oscillating Temperatures Time [hr] !Hourly
524,1,Facility,Facility Any Zone Oscillating Temperatures Time [hr] !Hourly
525,1,WEST ZONE,Zone Heating Setpoint Not Met Time [hr] !Hourly
526,1,WEST ZONE,Zone Heating Setpoint Not Met While Occupied Time [hr] !Hourly
527,1,WEST ZONE,Zone Cooling Setpoint Not Met Time [hr] !Hourly
528,1,WEST ZONE,Zone Cooling Setpoint Not Met While Occupied Time [hr] !Hourly
529,1,EAST ZONE,Zone Heating Setpoint Not Met Time [hr] !Hourly
530,1,EAST ZONE,Zone Heating Setpoint Not Met While Occupied Time [hr] !Hourly
531,1,EAST ZONE,Zone Cooling Setpoint Not Met Time [hr] !Hourly
532,1,EAST ZONE,Zone Cooling Setpoint Not Met While Occupied Time [hr] !Hourly
533,1,WEST PLENUM,Zone Heating Setpoint Not Met Time [hr] !Hourly
534,1,WEST PLENUM,Zone Heating Setpoint Not Met While Occupied Time [hr] !Hourly
535,1,WEST PLENUM,Zone Cooling Setpoint Not Met Time [hr] !Hourly
536,1,WEST PLENUM,Zone Cooling Setpoint Not Met While Occupied Time [hr] !Hourly
537,1,EAST PLENUM,Zone Heating Setpoint Not Met Time [hr] !Hourly
538,1,EAST PLENUM,Zone Heating Setpoint Not Met While Occupied Time [hr] !Hourly
539,1,EAST PLENUM,Zone Cooling Setpoint Not Met Time [hr] !Hourly
540,1,EAST PLENUM,Zone Cooling Setpoint Not Met While Occupied Time [hr] !Hourly
541,1,WEST ZONE VAV SYSTEM,Zone Air Terminal VAV Damper Position [] !Hourly
542,1,WEST ZONE VAV SYSTEM,Zone Air Terminal Minimum Air Flow Fraction [] !Hourly
543,1,WEST ZONE VAV SYSTEM,Zone Air Terminal Outdoor Air Volume Flow Rate [m3/s] !Hourly
544,1,EAST ZONE VAV SYSTEM,Zone Air Terminal VAV Damper Position [] !Hourly
545,1,EAST ZONE VAV SYSTEM,Zone Air Terminal Minimum Air Flow Fraction [] !Hourly
546,1,EAST ZONE VAV SYSTEM,Zone Air Terminal Outdoor Air Volume Flow Rate [m3/s] !Hourly
599,1,WEST ZONE CW COOLING COIL,Cooling Coil Total Cooling Rate [W] !TimeStep
600,1,WEST ZONE CW COOLING COIL,Cooling Coil Sensible Cooling Rate [W] !TimeStep
603,1,EAST ZONE CW COOLING COIL,Cooling Coil Total Cooling Rate [W] !TimeStep
604,1,EAST ZONE CW COOLING COIL,Cooling Coil Sensible Cooling Rate [W] !TimeStep
605,1,WEST ZONE SUPPLY FAN,Fan Electric Power [W] !Hourly
606,1,WEST ZONE SUPPLY FAN,Fan Rise in Air Temperature [deltaC] !Hourly
607,1,WEST ZONE SUPPLY FAN,Fan Heat Gain to Air [W] !Hourly
608,1,WEST ZONE SUPPLY FAN,Fan Electric Energy [J] !Hourly
639,1,WEST ZONE SUPPLY FAN,Fan Air Mass Flow Rate [kg/s] !Hourly
640,1,EAST ZONE SUPPLY FAN,Fan Electric Power [W] !Hourly
641,1,EAST ZONE SUPPLY FAN,Fan Rise in Air Temperature [deltaC] !Hourly
642,1,EAST ZONE SUPPLY FAN,Fan Heat Gain to Air [W] !Hourly
643,1,EAST ZONE SUPPLY FAN,Fan Electric Energy [J] !Hourly
644,1,EAST ZONE SUPPLY FAN,Fan Air Mass Flow Rate [kg/s] !Hourly
645,1,WEST DATA CENTER IEC,Evaporative Cooler Total Stage Effectiveness [] !TimeStep
646,1,WEST DATA CENTER IEC,Evaporative Cooler Operating Mode Status [] !TimeStep
647,1,EAST DATA CENTER IEC,Evaporative Cooler Total Stage Effectiveness [] !TimeStep
648,1,EAST DATA CENTER IEC,Evaporative Cooler Operating Mode Status [] !TimeStep
649,1,WEST DATA CENTER DEC,Evaporative Cooler Stage Effectiveness [] !TimeStep
650,1,EAST DATA CENTER DEC,Evaporative Cooler Stage Effectiveness [] !TimeStep
662,1,WEST DATA CENTER IEC,Evaporative Cooler Electric Power [W] !TimeStep
663,1,WEST DATA CENTER IEC,Evaporative Cooler Water Volume [m3] !TimeStep
726,1,EAST DATA CENTER IEC,Evaporative Cooler Electric Power [W] !TimeStep
727,1,EAST DATA CENTER IEC,Evaporative Cooler Water Volume [m3] !TimeStep
730,1,WEST DATA CENTER DEC,Evaporative Cooler Electric Power [W] !TimeStep
731,1,WEST DATA CENTER DEC,Evaporative Cooler Water Volume [m3] !TimeStep
734,1,EAST DATA CENTER DEC,Evaporative Cooler Electric Power [W] !TimeStep
735,1,EAST DATA CENTER DEC,Evaporative Cooler Water Volume [m3] !TimeStep
737,1,WEST DX COOLING COIL,Cooling Coil Total Cooling Rate [W] !TimeStep
739,1,WEST DX COOLING COIL,Cooling Coil Sensible Cooling Rate [W] !TimeStep
741,1,EAST DX COOLING COIL,Cooling Coil Total Cooling Rate [W] !TimeStep
743,1,EAST DX COOLING COIL,Cooling Coil Sensible Cooling Rate [W] !TimeStep
766,1,CHILLER,Chiller Evaporator Cooling Rate [W] !Hourly
788,1,CHILLER,Chiller Evaporator Inlet Temperature [C] !Hourly
789,1,CHILLER,Chiller Evaporator Outlet Temperature [C] !Hourly
790,1,CHILLER,Chiller Condenser Heat Transfer Rate [W] !Hourly
802,1,CHILLER,Chiller Condenser Inlet Temperature [C] !Hourly
803,1,CHILLER,Chiller Condenser Outlet Temperature [C] !Hourly
892,1,WEST ZONE INLET NODE,System Node Temperature [C] !TimeStep
893,1,WEST ZONE INLET NODE,System Node Mass Flow Rate [kg/s] !TimeStep
894,1,WEST OUTSIDE AIR INLET NODE,System Node Temperature [C] !TimeStep
895,1,WEST OUTSIDE AIR INLET NODE,System Node Mass Flow Rate [kg/s] !TimeStep
896,1,WEST IEC SECONDARY AIR INLET NODE,System Node Temperature [C] !TimeStep
897,1,WEST IEC SECONDARY AIR INLET NODE,System Node Mass Flow Rate [kg/s] !TimeStep
898,1,WEST ZONE DEC OUTLET NODE,System Node Temperature [C] !TimeStep
899,1,WEST ZONE DEC OUTLET NODE,System Node Setpoint Temperature [C] !TimeStep
900,1,WEST ZONE IEC OUTLET NODE,System Node Temperature [C] !TimeStep
901,1,WEST ZONE IEC OUTLET NODE,System Node Setpoint Temperature [C] !TimeStep
902,1,WEST ZONE CCOIL AIR OUTLET NODE,System Node Temperature [C] !TimeStep
903,1,WEST ZONE CCOIL AIR OUTLET NODE,System Node Setpoint Temperature [C] !TimeStep
904,1,WEST AIR LOOP OUTLET NODE,System Node Temperature [C] !TimeStep
905,1,WEST AIR LOOP OUTLET NODE,System Node Setpoint Temperature [C] !TimeStep
906,1,EAST ZONE INLET NODE,System Node Temperature [C] !TimeStep
907,1,EAST ZONE INLET NODE,System Node Mass Flow Rate [kg/s] !TimeStep
908,1,EAST OUTSIDE AIR INLET NODE,System Node Temperature [C] !TimeStep
909,1,EAST OUTSIDE AIR INLET NODE,System Node Mass Flow Rate [kg/s] !TimeStep
910,1,EAST IEC SECONDARY AIR INLET NODE,System Node Temperature [C] !TimeStep
911,1,EAST IEC SECONDARY AIR INLET NODE,System Node Mass Flow Rate [kg/s] !TimeStep
912,1,EAST ZONE DEC OUTLET NODE,System Node Temperature [C] !TimeStep
913,1,EAST ZONE DEC OUTLET NODE,System Node Setpoint Temperature [C] !TimeStep
914,1,EAST ZONE IEC OUTLET NODE,System Node Temperature [C] !TimeStep
915,1,EAST ZONE IEC OUTLET NODE,System Node Setpoint Temperature [C] !TimeStep
916,1,EAST ZONE CCOIL AIR OUTLET NODE,System Node Temperature [C] !TimeStep
917,1,EAST ZONE CCOIL AIR OUTLET NODE,System Node Setpoint Temperature [C] !TimeStep
918,1,EAST AIR LOOP OUTLET NODE,System Node Temperature [C] !TimeStep
919,1,EAST AIR LOOP OUTLET NODE,System Node Setpoint Temperature [C] !TimeStep
920,1,WEST ZONE RETURN AIR NODE,System Node Temperature [C] !TimeStep
921,1,WEST ZONE RETURN AIR NODE,System Node Mass Flow Rate [kg/s] !TimeStep
922,1,WEST ZONE MIXED AIR NODE,System Node Temperature [C] !TimeStep
923,1,WEST ZONE MIXED AIR NODE,System Node Mass Flow Rate [kg/s] !TimeStep
924,1,WEST ZONE SUPPLY FAN OUTLET NODE,System Node Temperature [C] !TimeStep
925,1,EAST ZONE SUPPLY FAN OUTLET NODE,System Node Temperature [C] !TimeStep
926,1,WEST IEC SECONDARY AIR OUTLET NODE,System Node Temperature [C] !TimeStep
927,1,WEST IEC SECONDARY AIR OUTLET NODE,System Node Mass Flow Rate [kg/s] !TimeStep
End of Data Dictionary
1,WHOLEYEARDAY,  37.62,-122.40,  -8.00,   2.00
2,1, 1, 1, 0, 1, 0.00,15.00,Tuesday
6,6.825
239,1.0300298866314462
312,21.868033875437154
313,33.606277503508959
349,23.381793865867654
350,29.593855982248674
599,0.0
600,0.0
603,0.0
604,0.0
645,0.06448973364210423
647,0.009151685424524214
649,0.6066666666666665
650,0.6533333333333331
662,4.879321193179595
663,0.0
726,0.0
727,0.0
730,6.086034488309832
731,0.0026495340789914605
734,2.0
735,0.0012821459734516773
737,0.0
739,0.0
741,0.0
743,0.0
892,18.04101629509447
893,4.229085958022359
894,6.825
895,0.5664309250798091
896,6.825
897,0.25900798466722188
898,18.815287894171559
899,27.220561066666666
900,18.20222937406097
901,27.220561066666666
902,18.20222937406097
903,27.220561066666666
904,18.20222937406097
905,27.220561066666666
906,20.08265850974896
907,3.9591245379944928
908,6.825
909,0.12359155813255074
910,6.825
911,0.02121580747202837
912,22.201145773736117
913,35.703072666666667
914,22.17031891628249
915,35.703072666666667
916,22.17031891628249
917,35.703072666666667
918,22.17031891628249
919,35.703072666666667
920,21.821626541763334
921,4.229085958022359
922,19.815040615747689
923,4.229085958022359
924,20.148421655870384
925,22.63385885232952
926,7.811145763407609
927,0.25900798466722188
646,0.13333333333333334
648,0.06666666666666667
2,1, 1, 1, 0, 1,15.00,30.00,Tuesday
6,6.95
239,1.0624069570779924
312,32.44348516701773
313,20.201640386494355
349,34.48757694449406
350,17.57888217547375
599,0.0
600,0.0
603,0.0
604,0.0
645,0.07228540769123149
647,0.02285117924235047
649,0.5133333333333332
650,0.6999999999999997
662,97.93872492689107
663,0.0
726,0.9510804922831829
727,0.0
730,1.3390502447711912
731,0.001034404540778151
734,5.948393165938908
735,0.0038256739152005326
737,2957.742204200187
739,2167.972988429791
741,0.0
743,0.0
892,25.566105552900706
893,3.876099024689027
894,6.9499999999999979
895,0.25853009655382849
896,6.9499999999999979
897,0.7446990145243104
898,29.563544439328039
899,33.39882813333333
900,27.59543779482012
901,33.39882813333333
902,27.25296562093575
903,33.39882813333333
904,27.25296562093575
905,33.39882813333333
906,25.501878283122623
907,3.2133123689972464
908,6.9499999999999979
909,0.29867799203681807
910,6.9499999999999979
911,0.11021827991164442
912,28.347016455674838
913,35.13915813333333
914,27.99765505846613
915,35.13915813333333
916,27.99765505846613
917,35.13915813333333
918,27.99765505846613
919,35.13915813333333
920,31.554321335820068
921,3.876099024689027
922,29.630720529121409
923,3.876099024689027
924,29.9810077101823
925,30.721866453417097
926,11.643106983248924
927,0.7446990145243104
646,0.2
648,0.06666666666666667
2,1, 1, 1, 0, 1,30.00,45.00,Tuesday
6,7.075
239,1.1374797433006339
312,37.42410669874243
313,15.487986991775001
349,43.37176712813804
350,12.485459478925627
599,0.0
600,0.0
603,0.0
604,0.0
645,0.12313445617678386
647,0.12305864398522887
649,0.3733333333333333
650,0.41999999999999995
662,59.029451739571097
663,0.0
726,8.946606921681589
727,0.0
730,2.80144614566125
731,0.0008889516812839973
734,4.017250444020416
735,0.001354324414710774
737,0.0
739,0.0
741,0.0
743,0.0
892,23.289945268198794
893,4.218536114194617
894,7.075
895,1.0497861339628308
896,7.075
897,0.9577738601932039
898,28.723130821337564
899,30.171263333333344
900,25.12476815123871
901,30.171263333333344
902,25.12476815123871
903,30.171263333333344
904,25.12476815123871
905,30.171263333333344
906,25.06890590493771
907,2.8660550000000004
908,7.075
909,0.8805651033182654
910,7.075
911,0.40974025188820525
912,31.269951178675009
913,33.37345593333334
914,28.0821304289829
915,33.37345593333334
916,28.0821304289829
917,33.37345593333334
918,28.0821304289829
919,33.37345593333334
920,37.05018790490786
921,4.218536114194617
922,29.02495693733572
923,4.218536114194617
924,29.36070109455713
925,32.63884600104463
926,13.716186784699474
927,0.9577738601932039
646,0.26666666666666669
648,0.26666666666666669
2,1, 1, 1, 0, 1,45.00,60.00,Tuesday
6,7.2
239,1.013047073995232
312,32.84958950916706
313,22.014494633235914
349,40.357957969308717
350,14.678767429478992
599,0.0
600,0.0
603,5.299167898646955
604,5.299167898646398
645,0.21398275064078987
647,0.09366694830045383
649,0.32666666666666668
650,0.46666666666666659
662,211.89677646791206
663,0.0
726,5.129816286784696
727,0.0
730,8.0
731,0.005681470267123201
734,4.141511837206607
735,0.0021966799481364844
737,3612.635954569667
739,2509.4246966762435
741,0.0
743,0.0
892,17.67763129294651
893,4.1902012
894,7.200000000000003
895,1.5582419139377573
896,7.200000000000003
897,1.7806185614796256
898,20.86790495469372
899,27.582002533333335
900,16.592729008378574
901,27.582002533333335
902,16.18025009037449
903,27.582002533333335
904,16.18025009037449
905,27.582002533333335
906,23.443338455474195
907,3.298442768997246
908,7.200000000000003
909,1.14762239740569
910,7.200000000000003
911,0.33099907979042017
912,27.151482523625167
913,30.40315693333334
914,24.1283054849455
915,30.40315693333334
916,24.1283054849455
917,30.40315693333334
918,24.12744619265098
919,30.40315693333334
920,33.214646917750147
921,4.1902012
922,23.273806628330786
923,4.1902012
924,23.592222995821634
925,28.318921223680396
926,12.094647859111483
927,1.7806185614796256
646,0.39999999999999999
648,0.2
2,1, 1, 1, 0, 1, 0.00,60.00,Tuesday
133,27997.8496208752
134,24279.631460422184
135,5227.748108129737
136,13936.849545599995
137,10219.334400000002
138,5227.748108129737
139,57505.22918942712
173,8.556955243327187
174,22.567188899535574
175,6.305101106388449
176,0.3653384249255136
177,29.97894841970286
178,0.09636786343662532
179,1.0
180,0.0
181,0.0
182,0.0
183,0.0
184,0.0
185,1.0
186,0.0
187,0.0
188,0.0
189,0.0
190,0.0
191,-19.634661575074487
192,27997.8496208752
193,24279.631460422184
194,5227.748108129737
195,13936.849545599995
196,10219.334400000002
197,5227.748108129737
198,57505.22918942712
199,31481.48806417427
200,27333.85686733092
201,5881.534493150518
202,15546.354479999996
203,11399.520000000002
204,5881.534493150518
205,64696.87942465571
209,9.636755775916586
210,22.687942366899664
211,6.568580869157944
212,0.36470156801614658
213,30.09127403787801
214,0.1271934014705451
215,1.0
216,0.0
217,0.0
218,0.0
219,0.0
220,0.0
221,1.0
222,0.0
223,0.0
224,0.0
225,0.0
226,0.0
227,-19.635298431983857
228,31481.48806417427
229,27333.85686733092
230,5881.534493150518
231,15546.354479999996
232,11399.520000000002
233,5881.534493150518
234,64696.87942465571
315,20.0
316,23.0
352,20.0
353,23.0
387,0.0
388,0.0
422,0.0
423,0.0
525,0.0
526,0.0
527,0.75
528,0.0
529,0.0
530,0.0
531,1.0
532,0.0
533,0.0
534,0.0
535,0.0
536,0.0
537,0.0
538,0.0
539,0.0
540,0.0
314,4.0
351,4.0
386,0.0
421,0.0
517,122230.50861408285
518,3417.5624666100257
519,125648.07108069284
520,0.0
521,0.05
522,0.05
523,0.0
524,0.1
541,0.6618168489895784
542,0.4
543,0.7128162269678171
544,0.4770676464019772
545,0.4
546,0.5088060328725288
605,1466.1249679236084
606,0.33445718647395969
607,1319.5124711312476
608,5278049.884524991
639,4.1284805742265
640,1290.7505252386472
641,0.3823687610523172
642,1161.6754727147825
643,4646701.890859131
644,3.3342336689972464
766,0.2591391390769155
788,10.204279777497455
789,10.150870480993025
790,0.2966664736792902
802,9.932275792733496
803,9.932278495754339
2,1, 1, 1, 0, 2, 0.00,15.00,Tuesday
6,7.2
239,1.0648912653451075
312,28.076723711447089
313,31.04822958744796
349,41.435113145857247
350,13.368403290012602
599,0.0
600,0.0
603,2229.0546618064404
604,2229.0546618063977
645,0.11298014316724534
647,0.1482688810816354
649,0.46666666666666659
650,0.32666666666666668
662,6.018648479829757
663,0.0
726,112.21840356790183
727,0.0
730,8.105257644799805
731,0.003367440219784434
734,1.1381963273610656
735,0.0003593801681315903
737,0.0
739,0.0
741,0.0
743,0.0
892,19.115022148142413
893,4.16598486851677
894,7.200000000000003
895,1.278616676361226
896,7.200000000000003
897,0.45503981875022839
898,20.4564652627439
899,23.504190866666666
900,19.109621585763713
901,23.504190866666666
902,19.109621585763713
903,23.504190866666666
904,19.109621585763713
905,23.504190866666666
906,23.586964360566236
907,3.2983201023305797
908,7.200000000000003
909,1.304013947772257
910,7.200000000000003
911,1.0240159180547253
912,27.701310030107146
913,28.473085666666667
914,22.864454777181125
915,28.473085666666667
916,22.864454777181125
917,28.473085666666667
918,22.438530131904814
919,28.473085666666667
920,28.25355557543411
921,4.16598486851677
922,21.988171192188017
923,4.16598486851677
924,22.31846256375918
925,27.930375851554279
926,10.904327314766256
927,0.45503981875022839
646,0.3333333333333333
648,0.26666666666666669
2,1, 1, 1, 0, 2,15.00,30.00,Tuesday
6,7.2
239,1.020392763744126
312,30.249894355114127
313,27.294401837526104
349,40.98640569266051
350,14.36300202533524
599,0.0
600,0.0
603,197.9831251567253
604,197.9831251567313
645,0.14718300731352225
647,0.11416554620620492
649,0.46666666666666659
650,0.27999999999999999
662,196.44439848211807
663,0.0
726,109.88933726522602
727,0.0
730,5.907418453852611
731,0.0015958099592996789
734,3.9044765044478364
735,0.003007164726753016
737,2966.4285323775393
739,1245.1584562290886
741,0.0
743,0.0
892,20.361083014265476
893,3.746554822838923
894,7.200000000000003
895,1.0998465037031276
896,7.200000000000003
897,1.4567086472845199
898,22.8155728080634
899,24.839127733333336
900,20.212757663675853
901,24.839127733333336
902,19.820577846397677
903,24.839127733333336
904,19.820577846397677
905,24.839127733333336
906,26.656716762229466
907,3.786525066666666
908,7.200000000000003
909,1.0108252772096805
910,7.200000000000003
911,0.9508596209013324
912,32.94137448645678
913,34.621773000000008
914,29.613419237295746
915,34.621773000000008
916,29.613419237295746
917,34.621773000000008